<?xml version="1.0" encoding="ISO-8859-1"?>
<modeling>
 <generator>
  <i name="program" type="string">vasp </i>
  <i name="version" type="string">5.4.4.18Apr17-6-g9f103f2a35  </i>
  <i name="subversion" type="string">(build Mar 27 2019 14:56:34) complex            parallel </i>
  <i name="platform" type="string">LinuxIFC </i>
  <i name="date" type="string">2019 11 26 </i>
  <i name="time" type="string">02:09:01 </i>
 </generator>
 <incar>
  <i type="string" name="SYSTEM"> Si</i>
  <i type="string" name="PREC">accurate  ! precision level</i>
  <i type="int" name="IALGO">    53</i>
  <i type="string" name="ALGO"> Normal      ! SCF minimisation algorith</i>
  <i type="int" name="NELM">   200</i>
  <i type="int" name="NELMIN">     6</i>
  <i type="int" name="IBRION">     2</i>
  <i name="EDIFF">      0.00000001</i>
  <i name="EDIFFG">     -0.00100000</i>
  <i type="int" name="NSW">     0</i>
  <i type="int" name="ISIF">     3</i>
  <i type="int" name="IWAVPR">    11</i>
  <i type="int" name="ISYM">    -1</i>
  <i name="ENCUT">   1000.00000000</i>
  <i type="int" name="NBANDS">    64</i>
  <i type="int" name="NEDOS">  2000</i>
  <i type="int" name="ISMEAR">     0</i>
  <i name="SIGMA">      0.01000000</i>
  <i type="int" name="LORBIT">    11</i>
  <i type="int" name="ICORELEVEL">     1</i>
  <v type="int" name="KPOINT_BSE">    -1     0     0     0</v>
  <i type="int" name="NELM">   200</i>
  <i type="string" name="GGA"> PE        ! PBEsol exchange-correlation</i>
 </incar>
 <structure name="primitive_cell" >
  <crystal>
   <varray name="basis" >
    <v>       0.00000000       2.73437320       2.73437320 </v>
    <v>       2.73437320       0.00000000       2.73437320 </v>
    <v>       2.73437320       2.73437320       0.00000000 </v>
   </varray>
   <i name="volume">     40.88870554 </i>
   <varray name="rec_basis" >
    <v>      -0.18285726       0.18285726       0.18285726 </v>
    <v>       0.18285726      -0.18285726       0.18285726 </v>
    <v>       0.18285726       0.18285726      -0.18285726 </v>
   </varray>
  </crystal>
  <varray name="positions" >
   <v>      -0.50000000      -0.50000000      -0.50000000 </v>
   <v>      -0.25000000      -0.25000000      -0.25000000 </v>
  </varray>
 </structure>
 <varray name="primitive_index" >
  <v type="int" >        1 </v>
  <v type="int" >        2 </v>
 </varray>
 <kpoints>
  <generation param="Gamma">
   <v type="int" name="divisions">       2        2        2 </v>
   <v name="usershift">      0.00000000       0.00000000       0.00000000 </v>
   <v name="genvec1">      0.50000000       0.00000000       0.00000000 </v>
   <v name="genvec2">      0.00000000       0.50000000       0.00000000 </v>
   <v name="genvec3">      0.00000000       0.00000000       0.50000000 </v>
   <v name="shift">      0.00000000       0.00000000       0.00000000 </v>
  </generation>
  <varray name="kpointlist" >
   <v>       0.00000000       0.00000000       0.00000000 </v>
   <v>       0.50000000       0.00000000       0.00000000 </v>
   <v>       0.00000000       0.50000000       0.00000000 </v>
   <v>       0.50000000       0.50000000       0.00000000 </v>
   <v>       0.00000000       0.00000000       0.50000000 </v>
   <v>       0.50000000       0.00000000       0.50000000 </v>
   <v>       0.00000000       0.50000000       0.50000000 </v>
   <v>       0.50000000       0.50000000       0.50000000 </v>
  </varray>
  <varray name="weights" >
   <v>       0.12500000 </v>
   <v>       0.12500000 </v>
   <v>       0.12500000 </v>
   <v>       0.12500000 </v>
   <v>       0.12500000 </v>
   <v>       0.12500000 </v>
   <v>       0.12500000 </v>
   <v>       0.12500000 </v>
  </varray>
 </kpoints>
 <parameters>
  <separator name="general" >
   <i type="string" name="SYSTEM">Si</i>
   <i type="logical" name="LCOMPAT"> F  </i>
  </separator>
  <separator name="electronic" >
   <i type="string" name="PREC">accura</i>
   <i name="ENMAX">   1000.00000000</i>
   <i name="ENAUG">    322.06900000</i>
   <i name="EDIFF">      0.00000001</i>
   <i type="int" name="IALGO">    38</i>
   <i type="int" name="IWAVPR">    11</i>
   <i type="int" name="NBANDS">    64</i>
   <i name="NELECT">      8.00000000</i>
   <i type="int" name="TURBO">     0</i>
   <i type="int" name="IRESTART">     0</i>
   <i type="int" name="NREBOOT">     0</i>
   <i type="int" name="NMIN">     0</i>
   <i name="EREF">      0.00000000</i>
   <separator name="electronic smearing" >
    <i type="int" name="ISMEAR">     0</i>
    <i name="SIGMA">      0.01000000</i>
    <i name="KSPACING">      0.50000000</i>
    <i type="logical" name="KGAMMA"> T  </i>
   </separator>
   <separator name="electronic projectors" >
    <i type="logical" name="LREAL"> F  </i>
    <v name="ROPT">      0.00000000</v>
    <i type="int" name="LMAXPAW">  -100</i>
    <i type="int" name="LMAXMIX">     2</i>
    <i type="logical" name="NLSPLINE"> F  </i>
   </separator>
   <separator name="electronic startup" >
    <i type="int" name="ISTART">     0</i>
    <i type="int" name="ICHARG">     2</i>
    <i type="int" name="INIWAV">     1</i>
   </separator>
   <separator name="electronic spin" >
    <i type="int" name="ISPIN">     1</i>
    <i type="logical" name="LNONCOLLINEAR"> F  </i>
    <v name="MAGMOM">      1.00000000      1.00000000</v>
    <i name="NUPDOWN">     -1.00000000</i>
    <i type="logical" name="LSORBIT"> F  </i>
    <v name="SAXIS">      0.00000000      0.00000000      1.00000000</v>
    <i type="logical" name="LSPIRAL"> F  </i>
    <v name="QSPIRAL">      0.00000000      0.00000000      0.00000000</v>
    <i type="logical" name="LZEROZ"> F  </i>
   </separator>
   <separator name="electronic exchange-correlation" >
    <i type="logical" name="LASPH"> F  </i>
    <i type="logical" name="LMETAGGA"> F  </i>
   </separator>
   <separator name="electronic convergence" >
    <i type="int" name="NELM">   200</i>
    <i type="int" name="NELMDL">    -5</i>
    <i type="int" name="NELMIN">     6</i>
    <i name="ENINI">   1000.00000000</i>
    <separator name="electronic convergence detail" >
     <i type="logical" name="LDIAG"> T  </i>
     <i type="logical" name="LSUBROT"> F  </i>
     <i name="WEIMIN">      0.00000000</i>
     <i name="EBREAK">      0.00000000</i>
     <i name="DEPER">      0.30000000</i>
     <i type="int" name="NRMM">     4</i>
     <i name="TIME">      0.40000000</i>
    </separator>
   </separator>
   <separator name="electronic mixer" >
    <i name="AMIX">      0.40000000</i>
    <i name="BMIX">      1.00000000</i>
    <i name="AMIN">      0.10000000</i>
    <i name="AMIX_MAG">      1.60000000</i>
    <i name="BMIX_MAG">      1.00000000</i>
    <separator name="electronic mixer details" >
     <i type="int" name="IMIX">     4</i>
     <i type="logical" name="MIXFIRST"> F  </i>
     <i type="int" name="MAXMIX">   -45</i>
     <i name="WC">    100.00000000</i>
     <i type="int" name="INIMIX">     1</i>
     <i type="int" name="MIXPRE">     1</i>
     <i type="int" name="MREMOVE">     5</i>
    </separator>
   </separator>
   <separator name="electronic dipolcorrection" >
    <i type="logical" name="LDIPOL"> F  </i>
    <i type="logical" name="LMONO"> F  </i>
    <i type="int" name="IDIPOL">     0</i>
    <i name="EPSILON">      1.00000000</i>
    <v name="DIPOL">   -100.00000000   -100.00000000   -100.00000000</v>
    <i name="EFIELD">      0.00000000</i>
   </separator>
  </separator>
  <separator name="grids" >
   <i type="int" name="NGX">    40</i>
   <i type="int" name="NGY">    40</i>
   <i type="int" name="NGZ">    40</i>
   <i type="int" name="NGXF">    80</i>
   <i type="int" name="NGYF">    80</i>
   <i type="int" name="NGZF">    80</i>
   <i type="logical" name="ADDGRID"> F  </i>
  </separator>
  <separator name="ionic" >
   <i type="int" name="NSW">     0</i>
   <i type="int" name="IBRION">    -1</i>
   <i type="int" name="MDALGO">     0</i>
   <i type="int" name="ISIF">     3</i>
   <i name="PSTRESS">      0.00000000</i>
   <i name="EDIFFG">     -0.00100000</i>
   <i type="int" name="NFREE">     1</i>
   <i name="POTIM">      0.50000000</i>
   <i name="SMASS">     -3.00000000</i>
   <i name="SCALEE">      1.00000000</i>
  </separator>
  <separator name="ionic md" >
   <i name="TEBEG">      0.00010000</i>
   <i name="TEEND">      0.00010000</i>
   <i type="int" name="NBLOCK">     1</i>
   <i type="int" name="KBLOCK">     1</i>
   <i type="int" name="NPACO">   256</i>
   <i name="APACO">     16.00000000</i>
  </separator>
  <separator name="symmetry" >
   <i type="int" name="ISYM">    -1</i>
   <i name="SYMPREC">      0.00001000</i>
  </separator>
  <separator name="dos" >
   <i type="int" name="LORBIT">    11</i>
   <v name="RWIGS">     -1.00000000</v>
   <i type="int" name="NEDOS">  2000</i>
   <i name="EMIN">     10.00000000</i>
   <i name="EMAX">    -10.00000000</i>
   <i name="EFERMI">      0.00000000</i>
  </separator>
  <separator name="writing" >
   <i type="int" name="NWRITE">     2</i>
   <i type="logical" name="LWAVE"> T  </i>
   <i type="logical" name="LDOWNSAMPLE"> F  </i>
   <i type="logical" name="LCHARG"> T  </i>
   <i type="logical" name="LPARD"> F  </i>
   <i type="logical" name="LVTOT"> F  </i>
   <i type="logical" name="LVHAR"> F  </i>
   <i type="logical" name="LELF"> F  </i>
   <i type="logical" name="LOPTICS"> F  </i>
   <v name="STM">      0.00000000      0.00000000      0.00000000      0.00000000      0.00000000      0.00000000      0.00000000</v>
  </separator>
  <separator name="performance" >
   <i type="int" name="NPAR">     8</i>
   <i type="int" name="NSIM">     4</i>
   <i type="int" name="NBLK">    -1</i>
   <i type="logical" name="LPLANE"> T  </i>
   <i type="logical" name="LSCALAPACK"> T  </i>
   <i type="logical" name="LSCAAWARE"> T  </i>
   <i type="logical" name="LSCALU"> F  </i>
   <i type="logical" name="LASYNC"> F  </i>
   <i type="logical" name="LORBITALREAL"> F  </i>
  </separator>
  <separator name="miscellaneous" >
   <i type="int" name="IDIOT">     3</i>
   <i type="int" name="ISPECIAL">     0</i>
   <i type="logical" name="LMUSIC"> F  </i>
   <v name="POMASS">     28.08500000</v>
   <v name="DARWINR">      0.00000000</v>
   <v name="DARWINV">      1.00000000</v>
   <i type="logical" name="LCORR"> T  </i>
  </separator>
  <i type="logical" name="GGA_COMPAT"> T  </i>
  <i type="logical" name="LBERRY"> F  </i>
  <i type="int" name="ICORELEVEL">     1</i>
  <i type="int" name="CLNT">     1</i>
  <i type="int" name="CLN">     1</i>
  <i type="int" name="CLL">     0</i>
  <i name="CLZ">      0.00000000</i>
  <i type="logical" name="LDAU"> F  </i>
  <i type="int" name="I_CONSTRAINED_M">     0</i>
  <separator name="electronic exchange-correlation" >
   <i type="string" name="GGA">PE</i>
   <i type="int" name="VOSKOWN">     0</i>
   <i type="logical" name="LHFCALC"> F  </i>
   <i type="string" name="PRECFOCK"></i>
   <i type="logical" name="LSYMGRAD"> F  </i>
   <i type="logical" name="LHFONE"> F  </i>
   <i type="logical" name="LRHFCALC"> F  </i>
   <i type="logical" name="LTHOMAS"> F  </i>
   <i type="logical" name="LMODELHF"> F  </i>
   <i name="ENCUT4O">     -1.00000000</i>
   <i type="int" name="EXXOEP">     0</i>
   <i type="int" name="FOURORBIT">     0</i>
   <i name="AEXX">      0.00000000</i>
   <i name="HFALPHA">      0.00000000</i>
   <i name="MCALPHA">      0.00000000</i>
   <i name="ALDAX">      1.00000000</i>
   <i name="AGGAX">      1.00000000</i>
   <i name="ALDAC">      1.00000000</i>
   <i name="AGGAC">      1.00000000</i>
   <i type="int" name="NKREDX">     1</i>
   <i type="int" name="NKREDY">     1</i>
   <i type="int" name="NKREDZ">     1</i>
   <i type="logical" name="SHIFTRED"> F  </i>
   <i type="logical" name="ODDONLY"> F  </i>
   <i type="logical" name="EVENONLY"> F  </i>
   <i type="int" name="LMAXFOCK">     0</i>
   <i type="int" name="NMAXFOCKAE">     0</i>
   <i type="logical" name="LFOCKAEDFT"> F  </i>
   <i name="HFSCREEN">      0.00000000</i>
   <i name="HFSCREENC">      0.00000000</i>
   <i type="int" name="NBANDSGWLOW">     0</i>
  </separator>
  <separator name="vdW DFT" >
   <i type="logical" name="LUSE_VDW"> F  </i>
   <i name="Zab_VDW">     -0.84910000</i>
   <i name="PARAM1">      0.12340000</i>
   <i name="PARAM2">      1.00000000</i>
   <i name="PARAM3">      0.00000000</i>
  </separator>
  <separator name="model GW" >
   <i type="int" name="MODEL_GW">     0</i>
   <i name="MODEL_EPS0">     12.26661166</i>
   <i name="MODEL_ALPHA">      1.00000000</i>
  </separator>
  <separator name="linear response parameters" >
   <i type="logical" name="LEPSILON"> F  </i>
   <i type="logical" name="LRPA"> F  </i>
   <i type="logical" name="LNABLA"> F  </i>
   <i type="logical" name="LVEL"> F  </i>
   <i type="int" name="KINTER">     0</i>
   <i name="CSHIFT">      0.10000000</i>
   <i name="OMEGAMAX">     -1.00000000</i>
   <i name="DEG_THRESHOLD">      0.00200000</i>
   <i name="RTIME">     -0.10000000</i>
   <i name="WPLASMAI">      0.00000000</i>
   <v name="DFIELD">      0.00000000      0.00000000      0.00000000</v>
   <v name="WPLASMA">      0.00000000      0.00000000      0.00000000      0.00000000      0.00000000      0.00000000      0.00000000      0.00000000      0.00000000</v>
  </separator>
  <separator name="orbital magnetization" >
   <i type="logical" name="NUCIND"> F  </i>
   <v name="MAGPOS">      0.00000000      0.00000000      0.00000000</v>
   <i type="logical" name="LNICSALL"> T  </i>
   <i type="logical" name="ORBITALMAG"> F  </i>
   <i type="logical" name="LMAGBLOCH"> F  </i>
   <i type="logical" name="LCHIMAG"> F  </i>
   <i type="logical" name="LGAUGE"> T  </i>
   <i type="int" name="MAGATOM">     0</i>
   <v name="MAGDIPOL">      0.00000000      0.00000000      0.00000000</v>
   <v name="AVECCONST">      0.00000000      0.00000000      0.00000000</v>
  </separator>
  <separator name="response functions" >
   <i type="logical" name="LADDER"> F  </i>
   <i type="logical" name="LRPAFORCE"> F  </i>
   <i type="logical" name="LFXC"> F  </i>
   <i type="logical" name="LHARTREE"> T  </i>
   <i type="int" name="IBSE">     0</i>
   <v type="int" name="KPOINT">    -1     0     0     0</v>
   <i type="logical" name="LTCTE"> F  </i>
   <i type="logical" name="LTETE"> F  </i>
   <i type="logical" name="LTRIPLET"> F  </i>
   <i type="logical" name="LFXCEPS"> F  </i>
   <i type="logical" name="LFXHEG"> F  </i>
   <i type="int" name="NATURALO">     2</i>
   <i type="logical" name="L2ORDER"> F  </i>
   <i type="logical" name="LMP2LT"> F  </i>
   <i type="logical" name="LUSEW"> F  </i>
   <i name="ENCUTGW">     -2.00000000</i>
   <i name="ENCUTGWSOFT">     -2.00000000</i>
   <i name="ENCUTLF">     -1.00000000</i>
   <i type="int" name="LMAXMP2">    -1</i>
   <i name="SCISSOR">      0.00000000</i>
   <i type="int" name="NOMEGA">     0</i>
   <i type="int" name="NOMEGAR">     0</i>
   <i type="int" name="NBANDSGW">    -1</i>
   <i type="int" name="NBANDSO">    -1</i>
   <i type="int" name="NBANDSV">    -1</i>
   <i type="int" name="NELM">   200</i>
   <i type="int" name="NELMHF">     1</i>
   <i type="int" name="DIM">     3</i>
   <i type="int" name="ANTIRES">     0</i>
   <i name="OMEGAMAX">    -30.00000000</i>
   <i name="OMEGAMIN">    -30.00000000</i>
   <i name="OMEGATL">   -200.00000000</i>
   <i type="int" name="OMEGAGRID">   140</i>
   <i name="CSHIFT">     -0.10000000</i>
   <i type="logical" name="SELFENERGY"> F  </i>
   <i type="logical" name="LSPECTRAL"> F  </i>
   <i type="logical" name="LSPECTRALGW"> F  </i>
   <i type="logical" name="LSINGLES"> F  </i>
   <i type="logical" name="LFERMIGW"> F  </i>
   <i type="logical" name="ODDONLYGW"> F  </i>
   <i type="logical" name="EVENONLYGW"> F  </i>
   <i type="int" name="NKREDLFX">     1</i>
   <i type="int" name="NKREDLFY">     1</i>
   <i type="int" name="NKREDLFZ">     1</i>
   <i type="int" name="MAXMEM">  2800</i>
   <i type="int" name="TELESCOPE">     0</i>
   <i type="int" name="TAUPAR">     1</i>
   <i type="int" name="OMEGAPAR">    -1</i>
   <i name="LAMBDA">      1.00000000</i>
  </separator>
  <separator name="External order field" >
   <i name="OFIELD_KAPPA">      0.00000000</i>
   <v name="OFIELD_K">      0.00000000      0.00000000      0.00000000</v>
   <i name="OFIELD_Q6_NEAR">      0.00000000</i>
   <i name="OFIELD_Q6_FAR">      0.00000000</i>
   <i name="OFIELD_A">      0.00000000</i>
  </separator>
 </parameters>
 <atominfo>
  <atoms>       2 </atoms>
  <types>       1 </types>
  <array name="atoms" >
   <dimension dim="1">ion</dimension>
   <field type="string">element</field>
   <field type="int">atomtype</field>
   <set>
    <rc><c>Si</c><c>   1</c></rc>
    <rc><c>Si</c><c>   1</c></rc>
   </set>
  </array>
  <array name="atomtypes" >
   <dimension dim="1">type</dimension>
   <field type="int">atomspertype</field>
   <field type="string">element</field>
   <field>mass</field>
   <field>valence</field>
   <field type="string">pseudopotential</field>
   <set>
    <rc><c>   2</c><c>Si</c><c>     28.08500000</c><c>      4.00000000</c><c>  PAW_PBE Si 05Jan2001                  </c></rc>
   </set>
  </array>
 </atominfo>
 <structure name="initialpos" >
  <crystal>
   <varray name="basis" >
    <v>       0.00000000       2.73437320       2.73437320 </v>
    <v>       2.73437320       0.00000000       2.73437320 </v>
    <v>       2.73437320       2.73437320       0.00000000 </v>
   </varray>
   <i name="volume">     40.88870554 </i>
   <varray name="rec_basis" >
    <v>      -0.18285726       0.18285726       0.18285726 </v>
    <v>       0.18285726      -0.18285726       0.18285726 </v>
    <v>       0.18285726       0.18285726      -0.18285726 </v>
   </varray>
  </crystal>
  <varray name="positions" >
   <v>       0.50000000       0.50000000       0.50000000 </v>
   <v>       0.75000000       0.75000000       0.75000000 </v>
  </varray>
 </structure>
 <calculation>
  <scstep>
   <time name="dav">    0.47    0.47</time>
   <time name="total">    0.50    0.51</time>
   <energy>
    <i name="alphaZ">      3.29314713 </i>
    <i name="ewald">   -226.94413854 </i>
    <i name="hartreedc">    -11.32354277 </i>
    <i name="XCdc">    -18.68521890 </i>
    <i name="pawpsdc">    176.24759923 </i>
    <i name="pawaedc">   -141.06103558 </i>
    <i name="eentropy">     -0.00000000 </i>
    <i name="bandstr">     39.83465693 </i>
    <i name="atom">    206.13359276 </i>
    <i name="e_fr_energy">     27.49506026 </i>
    <i name="e_wo_entrp">     27.49506026 </i>
    <i name="e_0_energy">     27.49506026 </i>
   </energy>
  </scstep>
  <scstep>
   <time name="dav">    0.52    0.53</time>
   <time name="total">    0.53    0.53</time>
   <energy>
    <i name="e_fr_energy">     -7.67069961 </i>
    <i name="e_wo_entrp">     -7.67069961 </i>
    <i name="e_0_energy">     -7.67069961 </i>
   </energy>
  </scstep>
  <scstep>
   <time name="dav">    0.52    0.52</time>
   <time name="total">    0.52    0.52</time>
   <energy>
    <i name="e_fr_energy">     -8.68439090 </i>
    <i name="e_wo_entrp">     -8.68439090 </i>
    <i name="e_0_energy">     -8.68439090 </i>
   </energy>
  </scstep>
  <scstep>
   <time name="dav">    0.50    0.50</time>
   <time name="total">    0.50    0.51</time>
   <energy>
    <i name="e_fr_energy">     -8.68593589 </i>
    <i name="e_wo_entrp">     -8.68593589 </i>
    <i name="e_0_energy">     -8.68593589 </i>
   </energy>
  </scstep>
  <scstep>
   <time name="dav">    0.49    0.49</time>
   <time name="total">    0.50    0.50</time>
   <energy>
    <i name="e_fr_energy">     -8.68593774 </i>
    <i name="e_wo_entrp">     -8.68593774 </i>
    <i name="e_0_energy">     -8.68593774 </i>
   </energy>
  </scstep>
  <scstep>
   <time name="dav">    0.50    0.50</time>
   <time name="total">    0.53    0.53</time>
   <energy>
    <i name="e_fr_energy">     -8.43760297 </i>
    <i name="e_wo_entrp">     -8.43760297 </i>
    <i name="e_0_energy">     -8.43760297 </i>
   </energy>
  </scstep>
  <scstep>
   <time name="dav">    0.53    0.53</time>
   <time name="total">    0.55    0.55</time>
   <energy>
    <i name="e_fr_energy">     -8.33055283 </i>
    <i name="e_wo_entrp">     -8.33055283 </i>
    <i name="e_0_energy">     -8.33055283 </i>
   </energy>
  </scstep>
  <scstep>
   <time name="dav">    0.49    0.49</time>
   <time name="total">    0.52    0.52</time>
   <energy>
    <i name="e_fr_energy">     -8.33576322 </i>
    <i name="e_wo_entrp">     -8.33576322 </i>
    <i name="e_0_energy">     -8.33576322 </i>
   </energy>
  </scstep>
  <scstep>
   <time name="dav">    0.51    0.51</time>
   <time name="total">    0.53    0.53</time>
   <energy>
    <i name="e_fr_energy">     -8.33684519 </i>
    <i name="e_wo_entrp">     -8.33684519 </i>
    <i name="e_0_energy">     -8.33684519 </i>
   </energy>
  </scstep>
  <scstep>
   <time name="dav">    0.49    0.49</time>
   <time name="total">    0.52    0.52</time>
   <energy>
    <i name="e_fr_energy">     -8.33691032 </i>
    <i name="e_wo_entrp">     -8.33691032 </i>
    <i name="e_0_energy">     -8.33691032 </i>
   </energy>
  </scstep>
  <scstep>
   <time name="dav">    0.51    0.51</time>
   <time name="total">    0.54    0.54</time>
   <energy>
    <i name="e_fr_energy">     -8.33691743 </i>
    <i name="e_wo_entrp">     -8.33691743 </i>
    <i name="e_0_energy">     -8.33691743 </i>
   </energy>
  </scstep>
  <scstep>
   <time name="dav">    0.50    0.50</time>
   <time name="total">    0.52    0.52</time>
   <energy>
    <i name="e_fr_energy">     -8.33691770 </i>
    <i name="e_wo_entrp">     -8.33691770 </i>
    <i name="e_0_energy">     -8.33691770 </i>
   </energy>
  </scstep>
  <scstep>
   <time name="dav">    0.49    0.49</time>
   <time name="total">    0.52    0.52</time>
   <energy>
    <i name="e_fr_energy">     -8.33691784 </i>
    <i name="e_wo_entrp">     -8.33691784 </i>
    <i name="e_0_energy">     -8.33691784 </i>
   </energy>
  </scstep>
  <scstep>
   <time name="dav">    0.46    0.46</time>
   <time name="total">    0.51    0.51</time>
   <energy>
    <i name="alphaZ">      3.29314713 </i>
    <i name="ewald">   -226.94413854 </i>
    <i name="hartreedc">    -17.45555741 </i>
    <i name="XCdc">    -17.78580548 </i>
    <i name="pawpsdc">    915.15504575 </i>
    <i name="pawaedc">   -880.23050622 </i>
    <i name="eentropy">     -0.00000000 </i>
    <i name="bandstr">      9.49730418 </i>
    <i name="atom">    206.13359276 </i>
    <i name="e_fr_energy">     -8.33691784 </i>
    <i name="e_wo_entrp">     -8.33691784 </i>
    <i name="e_0_energy">     -8.33691784 </i>
   </energy>
  </scstep>
  <structure>
   <crystal>
    <varray name="basis" >
     <v>       0.00000000       2.73437320       2.73437320 </v>
     <v>       2.73437320       0.00000000       2.73437320 </v>
     <v>       2.73437320       2.73437320       0.00000000 </v>
    </varray>
    <i name="volume">     40.88870554 </i>
    <varray name="rec_basis" >
     <v>      -0.18285726       0.18285726       0.18285726 </v>
     <v>       0.18285726      -0.18285726       0.18285726 </v>
     <v>       0.18285726       0.18285726      -0.18285726 </v>
    </varray>
   </crystal>
   <varray name="positions" >
    <v>       0.50000000       0.50000000       0.50000000 </v>
    <v>       0.75000000       0.75000000       0.75000000 </v>
   </varray>
  </structure>
  <varray name="forces" >
   <v>      -0.00000001      -0.00000001      -0.00000001 </v>
   <v>       0.00000001       0.00000001       0.00000001 </v>
  </varray>
  <varray name="stress" >
   <v>      74.44541102       0.00000036       0.00000029 </v>
   <v>       0.00000022      74.44541106       0.00000042 </v>
   <v>       0.00000013       0.00000042      74.44541109 </v>
  </varray>
  <energy>
   <i name="e_fr_energy">     -8.33691784 </i>
   <i name="e_wo_entrp">     -8.33691784 </i>
   <i name="e_0_energy">     -0.00000000 </i>
  </energy>
  <time name="totalsc">    9.93   10.66</time>
  <eigenvalues>
   <array>
    <dimension dim="1">band</dimension>
    <dimension dim="2">kpoint</dimension>
    <dimension dim="3">spin</dimension>
    <field>eigene</field>
    <field>occ</field>
    <set>
     <set comment="spin 1">
      <set comment="kpoint 1">
       <r>   -5.9515    1.0000 </r>
       <r>    5.9173    1.0000 </r>
       <r>    5.9173    1.0000 </r>
       <r>    5.9173    1.0000 </r>
       <r>    8.3549    0.0000 </r>
       <r>    8.3549    0.0000 </r>
       <r>    8.3549    0.0000 </r>
       <r>    9.0760    0.0000 </r>
       <r>   13.4781    0.0000 </r>
       <r>   13.4781    0.0000 </r>
       <r>   13.8002    0.0000 </r>
       <r>   16.9407    0.0000 </r>
       <r>   16.9407    0.0000 </r>
       <r>   16.9407    0.0000 </r>
       <r>   21.2203    0.0000 </r>
       <r>   28.7601    0.0000 </r>
       <r>   28.7601    0.0000 </r>
       <r>   28.7601    0.0000 </r>
       <r>   29.7883    0.0000 </r>
       <r>   29.7883    0.0000 </r>
       <r>   31.3111    0.0000 </r>
       <r>   31.3111    0.0000 </r>
       <r>   31.3111    0.0000 </r>
       <r>   34.6722    0.0000 </r>
       <r>   34.6722    0.0000 </r>
       <r>   34.6722    0.0000 </r>
       <r>   40.3799    0.0000 </r>
       <r>   40.3799    0.0000 </r>
       <r>   40.3799    0.0000 </r>
       <r>   43.8176    0.0000 </r>
       <r>   44.0883    0.0000 </r>
       <r>   44.0883    0.0000 </r>
       <r>   45.8897    0.0000 </r>
       <r>   45.8897    0.0000 </r>
       <r>   47.4752    0.0000 </r>
       <r>   47.4752    0.0000 </r>
       <r>   47.4752    0.0000 </r>
       <r>   49.2220    0.0000 </r>
       <r>   49.2220    0.0000 </r>
       <r>   49.2220    0.0000 </r>
       <r>   49.8364    0.0000 </r>
       <r>   50.1864    0.0000 </r>
       <r>   50.1864    0.0000 </r>
       <r>   50.1864    0.0000 </r>
       <r>   50.3410    0.0000 </r>
       <r>   50.3410    0.0000 </r>
       <r>   50.3410    0.0000 </r>
       <r>   51.6113    0.0000 </r>
       <r>   51.6113    0.0000 </r>
       <r>   51.6113    0.0000 </r>
       <r>   55.7247    0.0000 </r>
       <r>   56.6924    0.0000 </r>
       <r>   56.6924    0.0000 </r>
       <r>   56.6924    0.0000 </r>
       <r>   56.9997    0.0000 </r>
       <r>   56.9997    0.0000 </r>
       <r>   56.9997    0.0000 </r>
       <r>   61.9425    0.0000 </r>
       <r>   62.6326    0.0000 </r>
       <r>   71.3951    0.0000 </r>
       <r>   71.3951    0.0000 </r>
       <r>   74.4854    0.0000 </r>
       <r>   74.4854    0.0000 </r>
       <r>   74.4854    0.0000 </r>
      </set>
      <set comment="kpoint 2">
       <r>   -3.6534    1.0000 </r>
       <r>   -1.0170    1.0000 </r>
       <r>    4.7102    1.0000 </r>
       <r>    4.7102    1.0000 </r>
       <r>    7.3426    0.0000 </r>
       <r>    9.1310    0.0000 </r>
       <r>    9.1310    0.0000 </r>
       <r>   13.5404    0.0000 </r>
       <r>   16.3119    0.0000 </r>
       <r>   16.3119    0.0000 </r>
       <r>   17.0384    0.0000 </r>
       <r>   17.0384    0.0000 </r>
       <r>   17.1472    0.0000 </r>
       <r>   18.6512    0.0000 </r>
       <r>   25.0871    0.0000 </r>
       <r>   25.5890    0.0000 </r>
       <r>   27.2709    0.0000 </r>
       <r>   27.2709    0.0000 </r>
       <r>   27.3852    0.0000 </r>
       <r>   27.3852    0.0000 </r>
       <r>   31.3886    0.0000 </r>
       <r>   31.9466    0.0000 </r>
       <r>   31.9466    0.0000 </r>
       <r>   32.9875    0.0000 </r>
       <r>   32.9875    0.0000 </r>
       <r>   33.8447    0.0000 </r>
       <r>   36.4459    0.0000 </r>
       <r>   37.8584    0.0000 </r>
       <r>   37.8584    0.0000 </r>
       <r>   38.3339    0.0000 </r>
       <r>   38.3339    0.0000 </r>
       <r>   39.3292    0.0000 </r>
       <r>   41.7356    0.0000 </r>
       <r>   42.1877    0.0000 </r>
       <r>   46.1632    0.0000 </r>
       <r>   46.1632    0.0000 </r>
       <r>   47.8913    0.0000 </r>
       <r>   47.8913    0.0000 </r>
       <r>   48.2487    0.0000 </r>
       <r>   49.0318    0.0000 </r>
       <r>   51.8648    0.0000 </r>
       <r>   51.8648    0.0000 </r>
       <r>   53.6557    0.0000 </r>
       <r>   53.6557    0.0000 </r>
       <r>   54.4100    0.0000 </r>
       <r>   57.8036    0.0000 </r>
       <r>   57.8873    0.0000 </r>
       <r>   57.8873    0.0000 </r>
       <r>   59.1256    0.0000 </r>
       <r>   59.1256    0.0000 </r>
       <r>   59.4558    0.0000 </r>
       <r>   61.0228    0.0000 </r>
       <r>   61.0228    0.0000 </r>
       <r>   63.5429    0.0000 </r>
       <r>   63.5429    0.0000 </r>
       <r>   64.3116    0.0000 </r>
       <r>   64.7616    0.0000 </r>
       <r>   64.7616    0.0000 </r>
       <r>   66.4540    0.0000 </r>
       <r>   67.4911    0.0000 </r>
       <r>   67.4911    0.0000 </r>
       <r>   67.9809    0.0000 </r>
       <r>   69.0535    0.0000 </r>
       <r>   69.7329    0.0000 </r>
      </set>
      <set comment="kpoint 3">
       <r>   -3.6534    1.0000 </r>
       <r>   -1.0170    1.0000 </r>
       <r>    4.7102    1.0000 </r>
       <r>    4.7102    1.0000 </r>
       <r>    7.3426    0.0000 </r>
       <r>    9.1310    0.0000 </r>
       <r>    9.1310    0.0000 </r>
       <r>   13.5404    0.0000 </r>
       <r>   16.3119    0.0000 </r>
       <r>   16.3119    0.0000 </r>
       <r>   17.0384    0.0000 </r>
       <r>   17.0384    0.0000 </r>
       <r>   17.1472    0.0000 </r>
       <r>   18.6512    0.0000 </r>
       <r>   25.0871    0.0000 </r>
       <r>   25.5890    0.0000 </r>
       <r>   27.2709    0.0000 </r>
       <r>   27.2709    0.0000 </r>
       <r>   27.3852    0.0000 </r>
       <r>   27.3852    0.0000 </r>
       <r>   31.3886    0.0000 </r>
       <r>   31.9466    0.0000 </r>
       <r>   31.9466    0.0000 </r>
       <r>   32.9875    0.0000 </r>
       <r>   32.9875    0.0000 </r>
       <r>   33.8447    0.0000 </r>
       <r>   36.4459    0.0000 </r>
       <r>   37.8584    0.0000 </r>
       <r>   37.8584    0.0000 </r>
       <r>   38.3339    0.0000 </r>
       <r>   38.3339    0.0000 </r>
       <r>   39.3292    0.0000 </r>
       <r>   41.7356    0.0000 </r>
       <r>   42.1877    0.0000 </r>
       <r>   46.1632    0.0000 </r>
       <r>   46.1632    0.0000 </r>
       <r>   47.8913    0.0000 </r>
       <r>   47.8913    0.0000 </r>
       <r>   48.2487    0.0000 </r>
       <r>   49.0318    0.0000 </r>
       <r>   51.8648    0.0000 </r>
       <r>   51.8648    0.0000 </r>
       <r>   53.6557    0.0000 </r>
       <r>   53.6557    0.0000 </r>
       <r>   54.4100    0.0000 </r>
       <r>   57.8036    0.0000 </r>
       <r>   57.8873    0.0000 </r>
       <r>   57.8873    0.0000 </r>
       <r>   59.1256    0.0000 </r>
       <r>   59.1256    0.0000 </r>
       <r>   59.4558    0.0000 </r>
       <r>   61.0228    0.0000 </r>
       <r>   61.0228    0.0000 </r>
       <r>   63.5429    0.0000 </r>
       <r>   63.5429    0.0000 </r>
       <r>   64.3116    0.0000 </r>
       <r>   64.7616    0.0000 </r>
       <r>   64.7616    0.0000 </r>
       <r>   66.4540    0.0000 </r>
       <r>   67.4911    0.0000 </r>
       <r>   67.4911    0.0000 </r>
       <r>   67.9809    0.0000 </r>
       <r>   69.0535    0.0000 </r>
       <r>   69.7329    0.0000 </r>
      </set>
      <set comment="kpoint 4">
       <r>   -1.8614    1.0000 </r>
       <r>   -1.8614    1.0000 </r>
       <r>    3.0595    1.0000 </r>
       <r>    3.0595    1.0000 </r>
       <r>    6.5593    0.0000 </r>
       <r>    6.5593    0.0000 </r>
       <r>   15.8017    0.0000 </r>
       <r>   15.8017    0.0000 </r>
       <r>   16.7865    0.0000 </r>
       <r>   16.7865    0.0000 </r>
       <r>   18.2218    0.0000 </r>
       <r>   18.2218    0.0000 </r>
       <r>   18.7480    0.0000 </r>
       <r>   18.7480    0.0000 </r>
       <r>   24.5969    0.0000 </r>
       <r>   24.5969    0.0000 </r>
       <r>   25.3592    0.0000 </r>
       <r>   25.3592    0.0000 </r>
       <r>   25.7658    0.0000 </r>
       <r>   25.7658    0.0000 </r>
       <r>   27.0474    0.0000 </r>
       <r>   27.0474    0.0000 </r>
       <r>   31.1193    0.0000 </r>
       <r>   31.1193    0.0000 </r>
       <r>   34.9612    0.0000 </r>
       <r>   34.9612    0.0000 </r>
       <r>   39.5709    0.0000 </r>
       <r>   39.5709    0.0000 </r>
       <r>   39.7573    0.0000 </r>
       <r>   39.7573    0.0000 </r>
       <r>   41.2052    0.0000 </r>
       <r>   41.2052    0.0000 </r>
       <r>   43.5685    0.0000 </r>
       <r>   43.5685    0.0000 </r>
       <r>   44.8953    0.0000 </r>
       <r>   44.8953    0.0000 </r>
       <r>   46.0971    0.0000 </r>
       <r>   46.0971    0.0000 </r>
       <r>   47.1961    0.0000 </r>
       <r>   47.1961    0.0000 </r>
       <r>   50.3262    0.0000 </r>
       <r>   50.3262    0.0000 </r>
       <r>   54.2069    0.0000 </r>
       <r>   54.2069    0.0000 </r>
       <r>   55.5993    0.0000 </r>
       <r>   55.5993    0.0000 </r>
       <r>   58.8147    0.0000 </r>
       <r>   58.8147    0.0000 </r>
       <r>   61.3542    0.0000 </r>
       <r>   61.3542    0.0000 </r>
       <r>   62.2526    0.0000 </r>
       <r>   62.2526    0.0000 </r>
       <r>   62.2932    0.0000 </r>
       <r>   62.2932    0.0000 </r>
       <r>   62.6536    0.0000 </r>
       <r>   62.6536    0.0000 </r>
       <r>   65.0490    0.0000 </r>
       <r>   65.0490    0.0000 </r>
       <r>   66.2012    0.0000 </r>
       <r>   66.2012    0.0000 </r>
       <r>   66.5482    0.0000 </r>
       <r>   66.5482    0.0000 </r>
       <r>   68.7365    0.0000 </r>
       <r>   68.7365    0.0000 </r>
      </set>
      <set comment="kpoint 5">
       <r>   -3.6534    1.0000 </r>
       <r>   -1.0170    1.0000 </r>
       <r>    4.7102    1.0000 </r>
       <r>    4.7102    1.0000 </r>
       <r>    7.3426    0.0000 </r>
       <r>    9.1310    0.0000 </r>
       <r>    9.1310    0.0000 </r>
       <r>   13.5404    0.0000 </r>
       <r>   16.3119    0.0000 </r>
       <r>   16.3119    0.0000 </r>
       <r>   17.0384    0.0000 </r>
       <r>   17.0384    0.0000 </r>
       <r>   17.1472    0.0000 </r>
       <r>   18.6512    0.0000 </r>
       <r>   25.0871    0.0000 </r>
       <r>   25.5890    0.0000 </r>
       <r>   27.2709    0.0000 </r>
       <r>   27.2709    0.0000 </r>
       <r>   27.3852    0.0000 </r>
       <r>   27.3852    0.0000 </r>
       <r>   31.3886    0.0000 </r>
       <r>   31.9466    0.0000 </r>
       <r>   31.9466    0.0000 </r>
       <r>   32.9875    0.0000 </r>
       <r>   32.9875    0.0000 </r>
       <r>   33.8447    0.0000 </r>
       <r>   36.4459    0.0000 </r>
       <r>   37.8584    0.0000 </r>
       <r>   37.8584    0.0000 </r>
       <r>   38.3339    0.0000 </r>
       <r>   38.3339    0.0000 </r>
       <r>   39.3292    0.0000 </r>
       <r>   41.7356    0.0000 </r>
       <r>   42.1877    0.0000 </r>
       <r>   46.1632    0.0000 </r>
       <r>   46.1632    0.0000 </r>
       <r>   47.8913    0.0000 </r>
       <r>   47.8913    0.0000 </r>
       <r>   48.2487    0.0000 </r>
       <r>   49.0318    0.0000 </r>
       <r>   51.8648    0.0000 </r>
       <r>   51.8648    0.0000 </r>
       <r>   53.6557    0.0000 </r>
       <r>   53.6557    0.0000 </r>
       <r>   54.4100    0.0000 </r>
       <r>   57.8036    0.0000 </r>
       <r>   57.8873    0.0000 </r>
       <r>   57.8873    0.0000 </r>
       <r>   59.1256    0.0000 </r>
       <r>   59.1256    0.0000 </r>
       <r>   59.4558    0.0000 </r>
       <r>   61.0228    0.0000 </r>
       <r>   61.0228    0.0000 </r>
       <r>   63.5429    0.0000 </r>
       <r>   63.5429    0.0000 </r>
       <r>   64.3116    0.0000 </r>
       <r>   64.7616    0.0000 </r>
       <r>   64.7616    0.0000 </r>
       <r>   66.4540    0.0000 </r>
       <r>   67.4911    0.0000 </r>
       <r>   67.4911    0.0000 </r>
       <r>   67.9809    0.0000 </r>
       <r>   69.0535    0.0000 </r>
       <r>   69.7329    0.0000 </r>
      </set>
      <set comment="kpoint 6">
       <r>   -1.8614    1.0000 </r>
       <r>   -1.8614    1.0000 </r>
       <r>    3.0595    1.0000 </r>
       <r>    3.0595    1.0000 </r>
       <r>    6.5593    0.0000 </r>
       <r>    6.5593    0.0000 </r>
       <r>   15.8017    0.0000 </r>
       <r>   15.8017    0.0000 </r>
       <r>   16.7865    0.0000 </r>
       <r>   16.7865    0.0000 </r>
       <r>   18.2218    0.0000 </r>
       <r>   18.2218    0.0000 </r>
       <r>   18.7480    0.0000 </r>
       <r>   18.7480    0.0000 </r>
       <r>   24.5969    0.0000 </r>
       <r>   24.5969    0.0000 </r>
       <r>   25.3592    0.0000 </r>
       <r>   25.3592    0.0000 </r>
       <r>   25.7658    0.0000 </r>
       <r>   25.7658    0.0000 </r>
       <r>   27.0474    0.0000 </r>
       <r>   27.0474    0.0000 </r>
       <r>   31.1193    0.0000 </r>
       <r>   31.1193    0.0000 </r>
       <r>   34.9612    0.0000 </r>
       <r>   34.9612    0.0000 </r>
       <r>   39.5709    0.0000 </r>
       <r>   39.5709    0.0000 </r>
       <r>   39.7573    0.0000 </r>
       <r>   39.7573    0.0000 </r>
       <r>   41.2052    0.0000 </r>
       <r>   41.2052    0.0000 </r>
       <r>   43.5685    0.0000 </r>
       <r>   43.5685    0.0000 </r>
       <r>   44.8953    0.0000 </r>
       <r>   44.8953    0.0000 </r>
       <r>   46.0971    0.0000 </r>
       <r>   46.0971    0.0000 </r>
       <r>   47.1961    0.0000 </r>
       <r>   47.1961    0.0000 </r>
       <r>   50.3262    0.0000 </r>
       <r>   50.3262    0.0000 </r>
       <r>   54.2069    0.0000 </r>
       <r>   54.2069    0.0000 </r>
       <r>   55.5993    0.0000 </r>
       <r>   55.5993    0.0000 </r>
       <r>   58.8147    0.0000 </r>
       <r>   58.8147    0.0000 </r>
       <r>   61.3542    0.0000 </r>
       <r>   61.3542    0.0000 </r>
       <r>   62.2526    0.0000 </r>
       <r>   62.2526    0.0000 </r>
       <r>   62.2932    0.0000 </r>
       <r>   62.2932    0.0000 </r>
       <r>   62.6536    0.0000 </r>
       <r>   62.6536    0.0000 </r>
       <r>   65.0490    0.0000 </r>
       <r>   65.0490    0.0000 </r>
       <r>   66.2012    0.0000 </r>
       <r>   66.2012    0.0000 </r>
       <r>   66.5482    0.0000 </r>
       <r>   66.5482    0.0000 </r>
       <r>   68.7365    0.0000 </r>
       <r>   68.7365    0.0000 </r>
      </set>
      <set comment="kpoint 7">
       <r>   -1.8614    1.0000 </r>
       <r>   -1.8614    1.0000 </r>
       <r>    3.0595    1.0000 </r>
       <r>    3.0595    1.0000 </r>
       <r>    6.5593    0.0000 </r>
       <r>    6.5593    0.0000 </r>
       <r>   15.8017    0.0000 </r>
       <r>   15.8017    0.0000 </r>
       <r>   16.7865    0.0000 </r>
       <r>   16.7865    0.0000 </r>
       <r>   18.2218    0.0000 </r>
       <r>   18.2218    0.0000 </r>
       <r>   18.7480    0.0000 </r>
       <r>   18.7480    0.0000 </r>
       <r>   24.5969    0.0000 </r>
       <r>   24.5969    0.0000 </r>
       <r>   25.3592    0.0000 </r>
       <r>   25.3592    0.0000 </r>
       <r>   25.7658    0.0000 </r>
       <r>   25.7658    0.0000 </r>
       <r>   27.0474    0.0000 </r>
       <r>   27.0474    0.0000 </r>
       <r>   31.1193    0.0000 </r>
       <r>   31.1193    0.0000 </r>
       <r>   34.9612    0.0000 </r>
       <r>   34.9612    0.0000 </r>
       <r>   39.5709    0.0000 </r>
       <r>   39.5709    0.0000 </r>
       <r>   39.7573    0.0000 </r>
       <r>   39.7573    0.0000 </r>
       <r>   41.2052    0.0000 </r>
       <r>   41.2052    0.0000 </r>
       <r>   43.5685    0.0000 </r>
       <r>   43.5685    0.0000 </r>
       <r>   44.8953    0.0000 </r>
       <r>   44.8953    0.0000 </r>
       <r>   46.0971    0.0000 </r>
       <r>   46.0971    0.0000 </r>
       <r>   47.1961    0.0000 </r>
       <r>   47.1961    0.0000 </r>
       <r>   50.3262    0.0000 </r>
       <r>   50.3262    0.0000 </r>
       <r>   54.2069    0.0000 </r>
       <r>   54.2069    0.0000 </r>
       <r>   55.5993    0.0000 </r>
       <r>   55.5993    0.0000 </r>
       <r>   58.8147    0.0000 </r>
       <r>   58.8147    0.0000 </r>
       <r>   61.3542    0.0000 </r>
       <r>   61.3542    0.0000 </r>
       <r>   62.2526    0.0000 </r>
       <r>   62.2526    0.0000 </r>
       <r>   62.2932    0.0000 </r>
       <r>   62.2932    0.0000 </r>
       <r>   62.6536    0.0000 </r>
       <r>   62.6536    0.0000 </r>
       <r>   65.0490    0.0000 </r>
       <r>   65.0490    0.0000 </r>
       <r>   66.2012    0.0000 </r>
       <r>   66.2012    0.0000 </r>
       <r>   66.5482    0.0000 </r>
       <r>   66.5482    0.0000 </r>
       <r>   68.7365    0.0000 </r>
       <r>   68.7365    0.0000 </r>
      </set>
      <set comment="kpoint 8">
       <r>   -3.6534    1.0000 </r>
       <r>   -1.0170    1.0000 </r>
       <r>    4.7102    1.0000 </r>
       <r>    4.7102    1.0000 </r>
       <r>    7.3426    0.0000 </r>
       <r>    9.1310    0.0000 </r>
       <r>    9.1310    0.0000 </r>
       <r>   13.5404    0.0000 </r>
       <r>   16.3119    0.0000 </r>
       <r>   16.3119    0.0000 </r>
       <r>   17.0384    0.0000 </r>
       <r>   17.0384    0.0000 </r>
       <r>   17.1472    0.0000 </r>
       <r>   18.6512    0.0000 </r>
       <r>   25.0871    0.0000 </r>
       <r>   25.5890    0.0000 </r>
       <r>   27.2709    0.0000 </r>
       <r>   27.2709    0.0000 </r>
       <r>   27.3852    0.0000 </r>
       <r>   27.3852    0.0000 </r>
       <r>   31.3886    0.0000 </r>
       <r>   31.9466    0.0000 </r>
       <r>   31.9466    0.0000 </r>
       <r>   32.9875    0.0000 </r>
       <r>   32.9875    0.0000 </r>
       <r>   33.8447    0.0000 </r>
       <r>   36.4459    0.0000 </r>
       <r>   37.8584    0.0000 </r>
       <r>   37.8584    0.0000 </r>
       <r>   38.3339    0.0000 </r>
       <r>   38.3339    0.0000 </r>
       <r>   39.3292    0.0000 </r>
       <r>   41.7356    0.0000 </r>
       <r>   42.1877    0.0000 </r>
       <r>   46.1632    0.0000 </r>
       <r>   46.1632    0.0000 </r>
       <r>   47.8913    0.0000 </r>
       <r>   47.8913    0.0000 </r>
       <r>   48.2487    0.0000 </r>
       <r>   49.0318    0.0000 </r>
       <r>   51.8648    0.0000 </r>
       <r>   51.8648    0.0000 </r>
       <r>   53.6557    0.0000 </r>
       <r>   53.6557    0.0000 </r>
       <r>   54.4100    0.0000 </r>
       <r>   57.8036    0.0000 </r>
       <r>   57.8873    0.0000 </r>
       <r>   57.8873    0.0000 </r>
       <r>   59.1256    0.0000 </r>
       <r>   59.1256    0.0000 </r>
       <r>   59.4558    0.0000 </r>
       <r>   61.0228    0.0000 </r>
       <r>   61.0228    0.0000 </r>
       <r>   63.5429    0.0000 </r>
       <r>   63.5429    0.0000 </r>
       <r>   64.3116    0.0000 </r>
       <r>   64.7616    0.0000 </r>
       <r>   64.7616    0.0000 </r>
       <r>   66.4540    0.0000 </r>
       <r>   67.4911    0.0000 </r>
       <r>   67.4911    0.0000 </r>
       <r>   67.9809    0.0000 </r>
       <r>   69.0535    0.0000 </r>
       <r>   69.7329    0.0000 </r>
      </set>
     </set>
    </set>
   </array>
  </eigenvalues>
  <separator name="orbital magnetization" >
   <v name="MAGDIPOLOUT">      0.00000000      0.00000000      0.00000000</v>
  </separator>
  <dos>
   <i name="efermi">      5.97218929 </i>
   <total>
    <array>
     <dimension dim="1">gridpoints</dimension>
     <dimension dim="2">spin</dimension>
     <field>energy</field>
     <field>total</field>
     <field>integrated</field>
     <set>
      <set comment="spin 1">
       <r>    -9.9734     0.0000     0.0000 </r>
       <r>    -9.9291     0.0000     0.0000 </r>
       <r>    -9.8848     0.0000     0.0000 </r>
       <r>    -9.8406     0.0000     0.0000 </r>
       <r>    -9.7963     0.0000     0.0000 </r>
       <r>    -9.7520     0.0000     0.0000 </r>
       <r>    -9.7078     0.0000     0.0000 </r>
       <r>    -9.6635     0.0000     0.0000 </r>
       <r>    -9.6193     0.0000     0.0000 </r>
       <r>    -9.5750     0.0000     0.0000 </r>
       <r>    -9.5307     0.0000     0.0000 </r>
       <r>    -9.4865     0.0000     0.0000 </r>
       <r>    -9.4422     0.0000     0.0000 </r>
       <r>    -9.3979     0.0000     0.0000 </r>
       <r>    -9.3537     0.0000     0.0000 </r>
       <r>    -9.3094     0.0000     0.0000 </r>
       <r>    -9.2652     0.0000     0.0000 </r>
       <r>    -9.2209     0.0000     0.0000 </r>
       <r>    -9.1766     0.0000     0.0000 </r>
       <r>    -9.1324     0.0000     0.0000 </r>
       <r>    -9.0881     0.0000     0.0000 </r>
       <r>    -9.0438     0.0000     0.0000 </r>
       <r>    -8.9996     0.0000     0.0000 </r>
       <r>    -8.9553     0.0000     0.0000 </r>
       <r>    -8.9111     0.0000     0.0000 </r>
       <r>    -8.8668     0.0000     0.0000 </r>
       <r>    -8.8225     0.0000     0.0000 </r>
       <r>    -8.7783     0.0000     0.0000 </r>
       <r>    -8.7340     0.0000     0.0000 </r>
       <r>    -8.6897     0.0000     0.0000 </r>
       <r>    -8.6455     0.0000     0.0000 </r>
       <r>    -8.6012     0.0000     0.0000 </r>
       <r>    -8.5570     0.0000     0.0000 </r>
       <r>    -8.5127     0.0000     0.0000 </r>
       <r>    -8.4684     0.0000     0.0000 </r>
       <r>    -8.4242     0.0000     0.0000 </r>
       <r>    -8.3799     0.0000     0.0000 </r>
       <r>    -8.3356     0.0000     0.0000 </r>
       <r>    -8.2914     0.0000     0.0000 </r>
       <r>    -8.2471     0.0000     0.0000 </r>
       <r>    -8.2029     0.0000     0.0000 </r>
       <r>    -8.1586     0.0000     0.0000 </r>
       <r>    -8.1143     0.0000     0.0000 </r>
       <r>    -8.0701     0.0000     0.0000 </r>
       <r>    -8.0258     0.0000     0.0000 </r>
       <r>    -7.9815     0.0000     0.0000 </r>
       <r>    -7.9373     0.0000     0.0000 </r>
       <r>    -7.8930     0.0000     0.0000 </r>
       <r>    -7.8488     0.0000     0.0000 </r>
       <r>    -7.8045     0.0000     0.0000 </r>
       <r>    -7.7602     0.0000     0.0000 </r>
       <r>    -7.7160     0.0000     0.0000 </r>
       <r>    -7.6717     0.0000     0.0000 </r>
       <r>    -7.6274     0.0000     0.0000 </r>
       <r>    -7.5832     0.0000     0.0000 </r>
       <r>    -7.5389     0.0000     0.0000 </r>
       <r>    -7.4947     0.0000     0.0000 </r>
       <r>    -7.4504     0.0000     0.0000 </r>
       <r>    -7.4061     0.0000     0.0000 </r>
       <r>    -7.3619     0.0000     0.0000 </r>
       <r>    -7.3176     0.0000     0.0000 </r>
       <r>    -7.2733     0.0000     0.0000 </r>
       <r>    -7.2291     0.0000     0.0000 </r>
       <r>    -7.1848     0.0000     0.0000 </r>
       <r>    -7.1406     0.0000     0.0000 </r>
       <r>    -7.0963     0.0000     0.0000 </r>
       <r>    -7.0520     0.0000     0.0000 </r>
       <r>    -7.0078     0.0000     0.0000 </r>
       <r>    -6.9635     0.0000     0.0000 </r>
       <r>    -6.9192     0.0000     0.0000 </r>
       <r>    -6.8750     0.0000     0.0000 </r>
       <r>    -6.8307     0.0000     0.0000 </r>
       <r>    -6.7865     0.0000     0.0000 </r>
       <r>    -6.7422     0.0000     0.0000 </r>
       <r>    -6.6979     0.0000     0.0000 </r>
       <r>    -6.6537     0.0000     0.0000 </r>
       <r>    -6.6094     0.0000     0.0000 </r>
       <r>    -6.5651     0.0000     0.0000 </r>
       <r>    -6.5209     0.0000     0.0000 </r>
       <r>    -6.4766     0.0000     0.0000 </r>
       <r>    -6.4324     0.0000     0.0000 </r>
       <r>    -6.3881     0.0000     0.0000 </r>
       <r>    -6.3438     0.0000     0.0000 </r>
       <r>    -6.2996     0.0000     0.0000 </r>
       <r>    -6.2553     0.0000     0.0000 </r>
       <r>    -6.2110     0.0000     0.0000 </r>
       <r>    -6.1668     0.0000     0.0000 </r>
       <r>    -6.1225     0.0000     0.0000 </r>
       <r>    -6.0783     0.0000     0.0000 </r>
       <r>    -6.0340     0.0000     0.0000 </r>
       <r>    -5.9897     0.0000     0.0000 </r>
       <r>    -5.9455     4.5373     0.2008 </r>
       <r>    -5.9012     1.1108     0.2500 </r>
       <r>    -5.8569     0.0000     0.2500 </r>
       <r>    -5.8127     0.0000     0.2500 </r>
       <r>    -5.7684     0.0000     0.2500 </r>
       <r>    -5.7242     0.0000     0.2500 </r>
       <r>    -5.6799     0.0000     0.2500 </r>
       <r>    -5.6356     0.0000     0.2500 </r>
       <r>    -5.5914     0.0000     0.2500 </r>
       <r>    -5.5471     0.0000     0.2500 </r>
       <r>    -5.5028     0.0000     0.2500 </r>
       <r>    -5.4586     0.0000     0.2500 </r>
       <r>    -5.4143     0.0000     0.2500 </r>
       <r>    -5.3701     0.0000     0.2500 </r>
       <r>    -5.3258     0.0000     0.2500 </r>
       <r>    -5.2815     0.0000     0.2500 </r>
       <r>    -5.2373     0.0000     0.2500 </r>
       <r>    -5.1930     0.0000     0.2500 </r>
       <r>    -5.1488     0.0000     0.2500 </r>
       <r>    -5.1045     0.0000     0.2500 </r>
       <r>    -5.0602     0.0000     0.2500 </r>
       <r>    -5.0160     0.0000     0.2500 </r>
       <r>    -4.9717     0.0000     0.2500 </r>
       <r>    -4.9274     0.0000     0.2500 </r>
       <r>    -4.8832     0.0000     0.2500 </r>
       <r>    -4.8389     0.0000     0.2500 </r>
       <r>    -4.7947     0.0000     0.2500 </r>
       <r>    -4.7504     0.0000     0.2500 </r>
       <r>    -4.7061     0.0000     0.2500 </r>
       <r>    -4.6619     0.0000     0.2500 </r>
       <r>    -4.6176     0.0000     0.2500 </r>
       <r>    -4.5733     0.0000     0.2500 </r>
       <r>    -4.5291     0.0000     0.2500 </r>
       <r>    -4.4848     0.0000     0.2500 </r>
       <r>    -4.4406     0.0000     0.2500 </r>
       <r>    -4.3963     0.0000     0.2500 </r>
       <r>    -4.3520     0.0000     0.2500 </r>
       <r>    -4.3078     0.0000     0.2500 </r>
       <r>    -4.2635     0.0000     0.2500 </r>
       <r>    -4.2192     0.0000     0.2500 </r>
       <r>    -4.1750     0.0000     0.2500 </r>
       <r>    -4.1307     0.0000     0.2500 </r>
       <r>    -4.0865     0.0000     0.2500 </r>
       <r>    -4.0422     0.0000     0.2500 </r>
       <r>    -3.9979     0.0000     0.2500 </r>
       <r>    -3.9537     0.0000     0.2500 </r>
       <r>    -3.9094     0.0000     0.2500 </r>
       <r>    -3.8651     0.0000     0.2500 </r>
       <r>    -3.8209     0.0000     0.2500 </r>
       <r>    -3.7766     0.0000     0.2500 </r>
       <r>    -3.7324     0.0000     0.2500 </r>
       <r>    -3.6881     0.0000     0.2500 </r>
       <r>    -3.6438    20.6222     1.1628 </r>
       <r>    -3.5996     1.9704     1.2500 </r>
       <r>    -3.5553     0.0000     1.2500 </r>
       <r>    -3.5110     0.0000     1.2500 </r>
       <r>    -3.4668     0.0000     1.2500 </r>
       <r>    -3.4225     0.0000     1.2500 </r>
       <r>    -3.3783     0.0000     1.2500 </r>
       <r>    -3.3340     0.0000     1.2500 </r>
       <r>    -3.2897     0.0000     1.2500 </r>
       <r>    -3.2455     0.0000     1.2500 </r>
       <r>    -3.2012     0.0000     1.2500 </r>
       <r>    -3.1569     0.0000     1.2500 </r>
       <r>    -3.1127     0.0000     1.2500 </r>
       <r>    -3.0684     0.0000     1.2500 </r>
       <r>    -3.0242     0.0000     1.2500 </r>
       <r>    -2.9799     0.0000     1.2500 </r>
       <r>    -2.9356     0.0000     1.2500 </r>
       <r>    -2.8914     0.0000     1.2500 </r>
       <r>    -2.8471     0.0000     1.2500 </r>
       <r>    -2.8028     0.0000     1.2500 </r>
       <r>    -2.7586     0.0000     1.2500 </r>
       <r>    -2.7143     0.0000     1.2500 </r>
       <r>    -2.6701     0.0000     1.2500 </r>
       <r>    -2.6258     0.0000     1.2500 </r>
       <r>    -2.5815     0.0000     1.2500 </r>
       <r>    -2.5373     0.0000     1.2500 </r>
       <r>    -2.4930     0.0000     1.2500 </r>
       <r>    -2.4487     0.0000     1.2500 </r>
       <r>    -2.4045     0.0000     1.2500 </r>
       <r>    -2.3602     0.0000     1.2500 </r>
       <r>    -2.3160     0.0000     1.2500 </r>
       <r>    -2.2717     0.0000     1.2500 </r>
       <r>    -2.2274     0.0000     1.2500 </r>
       <r>    -2.1832     0.0000     1.2500 </r>
       <r>    -2.1389     0.0000     1.2500 </r>
       <r>    -2.0946     0.0000     1.2500 </r>
       <r>    -2.0504     0.0000     1.2500 </r>
       <r>    -2.0061     0.0000     1.2500 </r>
       <r>    -1.9619     0.0000     1.2500 </r>
       <r>    -1.9176     0.0000     1.2500 </r>
       <r>    -1.8733     1.5572     1.3189 </r>
       <r>    -1.8291    32.3315     2.7500 </r>
       <r>    -1.7848     0.0001     2.7500 </r>
       <r>    -1.7405     0.0000     2.7500 </r>
       <r>    -1.6963     0.0000     2.7500 </r>
       <r>    -1.6520     0.0000     2.7500 </r>
       <r>    -1.6078     0.0000     2.7500 </r>
       <r>    -1.5635     0.0000     2.7500 </r>
       <r>    -1.5192     0.0000     2.7500 </r>
       <r>    -1.4750     0.0000     2.7500 </r>
       <r>    -1.4307     0.0000     2.7500 </r>
       <r>    -1.3864     0.0000     2.7500 </r>
       <r>    -1.3422     0.0000     2.7500 </r>
       <r>    -1.2979     0.0000     2.7500 </r>
       <r>    -1.2537     0.0000     2.7500 </r>
       <r>    -1.2094     0.0000     2.7500 </r>
       <r>    -1.1651     0.0000     2.7500 </r>
       <r>    -1.1209     0.0000     2.7500 </r>
       <r>    -1.0766     0.0000     2.7500 </r>
       <r>    -1.0323     0.3332     2.7647 </r>
       <r>    -0.9881    22.2589     3.7500 </r>
       <r>    -0.9438     0.0005     3.7500 </r>
       <r>    -0.8996     0.0000     3.7500 </r>
       <r>    -0.8553     0.0000     3.7500 </r>
       <r>    -0.8110     0.0000     3.7500 </r>
       <r>    -0.7668     0.0000     3.7500 </r>
       <r>    -0.7225     0.0000     3.7500 </r>
       <r>    -0.6782     0.0000     3.7500 </r>
       <r>    -0.6340     0.0000     3.7500 </r>
       <r>    -0.5897     0.0000     3.7500 </r>
       <r>    -0.5455     0.0000     3.7500 </r>
       <r>    -0.5012     0.0000     3.7500 </r>
       <r>    -0.4569     0.0000     3.7500 </r>
       <r>    -0.4127     0.0000     3.7500 </r>
       <r>    -0.3684     0.0000     3.7500 </r>
       <r>    -0.3241     0.0000     3.7500 </r>
       <r>    -0.2799     0.0000     3.7500 </r>
       <r>    -0.2356     0.0000     3.7500 </r>
       <r>    -0.1914     0.0000     3.7500 </r>
       <r>    -0.1471     0.0000     3.7500 </r>
       <r>    -0.1028     0.0000     3.7500 </r>
       <r>    -0.0586     0.0000     3.7500 </r>
       <r>    -0.0143     0.0000     3.7500 </r>
       <r>     0.0300     0.0000     3.7500 </r>
       <r>     0.0742     0.0000     3.7500 </r>
       <r>     0.1185     0.0000     3.7500 </r>
       <r>     0.1627     0.0000     3.7500 </r>
       <r>     0.2070     0.0000     3.7500 </r>
       <r>     0.2513     0.0000     3.7500 </r>
       <r>     0.2955     0.0000     3.7500 </r>
       <r>     0.3398     0.0000     3.7500 </r>
       <r>     0.3841     0.0000     3.7500 </r>
       <r>     0.4283     0.0000     3.7500 </r>
       <r>     0.4726     0.0000     3.7500 </r>
       <r>     0.5168     0.0000     3.7500 </r>
       <r>     0.5611     0.0000     3.7500 </r>
       <r>     0.6054     0.0000     3.7500 </r>
       <r>     0.6496     0.0000     3.7500 </r>
       <r>     0.6939     0.0000     3.7500 </r>
       <r>     0.7382     0.0000     3.7500 </r>
       <r>     0.7824     0.0000     3.7500 </r>
       <r>     0.8267     0.0000     3.7500 </r>
       <r>     0.8709     0.0000     3.7500 </r>
       <r>     0.9152     0.0000     3.7500 </r>
       <r>     0.9595     0.0000     3.7500 </r>
       <r>     1.0037     0.0000     3.7500 </r>
       <r>     1.0480     0.0000     3.7500 </r>
       <r>     1.0923     0.0000     3.7500 </r>
       <r>     1.1365     0.0000     3.7500 </r>
       <r>     1.1808     0.0000     3.7500 </r>
       <r>     1.2250     0.0000     3.7500 </r>
       <r>     1.2693     0.0000     3.7500 </r>
       <r>     1.3136     0.0000     3.7500 </r>
       <r>     1.3578     0.0000     3.7500 </r>
       <r>     1.4021     0.0000     3.7500 </r>
       <r>     1.4464     0.0000     3.7500 </r>
       <r>     1.4906     0.0000     3.7500 </r>
       <r>     1.5349     0.0000     3.7500 </r>
       <r>     1.5791     0.0000     3.7500 </r>
       <r>     1.6234     0.0000     3.7500 </r>
       <r>     1.6677     0.0000     3.7500 </r>
       <r>     1.7119     0.0000     3.7500 </r>
       <r>     1.7562     0.0000     3.7500 </r>
       <r>     1.8005     0.0000     3.7500 </r>
       <r>     1.8447     0.0000     3.7500 </r>
       <r>     1.8890     0.0000     3.7500 </r>
       <r>     1.9332     0.0000     3.7500 </r>
       <r>     1.9775     0.0000     3.7500 </r>
       <r>     2.0218     0.0000     3.7500 </r>
       <r>     2.0660     0.0000     3.7500 </r>
       <r>     2.1103     0.0000     3.7500 </r>
       <r>     2.1546     0.0000     3.7500 </r>
       <r>     2.1988     0.0000     3.7500 </r>
       <r>     2.2431     0.0000     3.7500 </r>
       <r>     2.2873     0.0000     3.7500 </r>
       <r>     2.3316     0.0000     3.7500 </r>
       <r>     2.3759     0.0000     3.7500 </r>
       <r>     2.4201     0.0000     3.7500 </r>
       <r>     2.4644     0.0000     3.7500 </r>
       <r>     2.5087     0.0000     3.7500 </r>
       <r>     2.5529     0.0000     3.7500 </r>
       <r>     2.5972     0.0000     3.7500 </r>
       <r>     2.6414     0.0000     3.7500 </r>
       <r>     2.6857     0.0000     3.7500 </r>
       <r>     2.7300     0.0000     3.7500 </r>
       <r>     2.7742     0.0000     3.7500 </r>
       <r>     2.8185     0.0000     3.7500 </r>
       <r>     2.8628     0.0000     3.7500 </r>
       <r>     2.9070     0.0000     3.7500 </r>
       <r>     2.9513     0.0000     3.7500 </r>
       <r>     2.9955     0.0000     3.7500 </r>
       <r>     3.0398     0.0902     3.7540 </r>
       <r>     3.0841    33.7899     5.2496 </r>
       <r>     3.1283     0.0087     5.2500 </r>
       <r>     3.1726     0.0000     5.2500 </r>
       <r>     3.2169     0.0000     5.2500 </r>
       <r>     3.2611     0.0000     5.2500 </r>
       <r>     3.3054     0.0000     5.2500 </r>
       <r>     3.3496     0.0000     5.2500 </r>
       <r>     3.3939     0.0000     5.2500 </r>
       <r>     3.4382     0.0000     5.2500 </r>
       <r>     3.4824     0.0000     5.2500 </r>
       <r>     3.5267     0.0000     5.2500 </r>
       <r>     3.5710     0.0000     5.2500 </r>
       <r>     3.6152     0.0000     5.2500 </r>
       <r>     3.6595     0.0000     5.2500 </r>
       <r>     3.7037     0.0000     5.2500 </r>
       <r>     3.7480     0.0000     5.2500 </r>
       <r>     3.7923     0.0000     5.2500 </r>
       <r>     3.8365     0.0000     5.2500 </r>
       <r>     3.8808     0.0000     5.2500 </r>
       <r>     3.9251     0.0000     5.2500 </r>
       <r>     3.9693     0.0000     5.2500 </r>
       <r>     4.0136     0.0000     5.2500 </r>
       <r>     4.0578     0.0000     5.2500 </r>
       <r>     4.1021     0.0000     5.2500 </r>
       <r>     4.1464     0.0000     5.2500 </r>
       <r>     4.1906     0.0000     5.2500 </r>
       <r>     4.2349     0.0000     5.2500 </r>
       <r>     4.2792     0.0000     5.2500 </r>
       <r>     4.3234     0.0000     5.2500 </r>
       <r>     4.3677     0.0000     5.2500 </r>
       <r>     4.4119     0.0000     5.2500 </r>
       <r>     4.4562     0.0000     5.2500 </r>
       <r>     4.5005     0.0000     5.2500 </r>
       <r>     4.5447     0.0000     5.2500 </r>
       <r>     4.5890     0.0000     5.2500 </r>
       <r>     4.6333     0.0000     5.2500 </r>
       <r>     4.6775     0.0001     5.2500 </r>
       <r>     4.7218    42.8715     7.1476 </r>
       <r>     4.7660     2.3134     7.2500 </r>
       <r>     4.8103     0.0000     7.2500 </r>
       <r>     4.8546     0.0000     7.2500 </r>
       <r>     4.8988     0.0000     7.2500 </r>
       <r>     4.9431     0.0000     7.2500 </r>
       <r>     4.9873     0.0000     7.2500 </r>
       <r>     5.0316     0.0000     7.2500 </r>
       <r>     5.0759     0.0000     7.2500 </r>
       <r>     5.1201     0.0000     7.2500 </r>
       <r>     5.1644     0.0000     7.2500 </r>
       <r>     5.2087     0.0000     7.2500 </r>
       <r>     5.2529     0.0000     7.2500 </r>
       <r>     5.2972     0.0000     7.2500 </r>
       <r>     5.3414     0.0000     7.2500 </r>
       <r>     5.3857     0.0000     7.2500 </r>
       <r>     5.4300     0.0000     7.2500 </r>
       <r>     5.4742     0.0000     7.2500 </r>
       <r>     5.5185     0.0000     7.2500 </r>
       <r>     5.5628     0.0000     7.2500 </r>
       <r>     5.6070     0.0000     7.2500 </r>
       <r>     5.6513     0.0000     7.2500 </r>
       <r>     5.6955     0.0000     7.2500 </r>
       <r>     5.7398     0.0000     7.2500 </r>
       <r>     5.7841     0.0000     7.2500 </r>
       <r>     5.8283     0.0000     7.2500 </r>
       <r>     5.8726     0.0000     7.2500 </r>
       <r>     5.9169     8.0650     7.6070 </r>
       <r>     5.9611     8.8794     8.0000 </r>
       <r>     6.0054     0.0000     8.0000 </r>
       <r>     6.0496     0.0000     8.0000 </r>
       <r>     6.0939     0.0000     8.0000 </r>
       <r>     6.1382     0.0000     8.0000 </r>
       <r>     6.1824     0.0000     8.0000 </r>
       <r>     6.2267     0.0000     8.0000 </r>
       <r>     6.2710     0.0000     8.0000 </r>
       <r>     6.3152     0.0000     8.0000 </r>
       <r>     6.3595     0.0000     8.0000 </r>
       <r>     6.4037     0.0000     8.0000 </r>
       <r>     6.4480     0.0000     8.0000 </r>
       <r>     6.4923     0.0000     8.0000 </r>
       <r>     6.5365     0.0218     8.0010 </r>
       <r>     6.5808    33.8270     9.4982 </r>
       <r>     6.6251     0.0400     9.5000 </r>
       <r>     6.6693     0.0000     9.5000 </r>
       <r>     6.7136     0.0000     9.5000 </r>
       <r>     6.7578     0.0000     9.5000 </r>
       <r>     6.8021     0.0000     9.5000 </r>
       <r>     6.8464     0.0000     9.5000 </r>
       <r>     6.8906     0.0000     9.5000 </r>
       <r>     6.9349     0.0000     9.5000 </r>
       <r>     6.9792     0.0000     9.5000 </r>
       <r>     7.0234     0.0000     9.5000 </r>
       <r>     7.0677     0.0000     9.5000 </r>
       <r>     7.1119     0.0000     9.5000 </r>
       <r>     7.1562     0.0000     9.5000 </r>
       <r>     7.2005     0.0000     9.5000 </r>
       <r>     7.2447     0.0000     9.5000 </r>
       <r>     7.2890     0.0000     9.5000 </r>
       <r>     7.3333     2.1320     9.5944 </r>
       <r>     7.3775    20.4605    10.5000 </r>
       <r>     7.4218     0.0000    10.5000 </r>
       <r>     7.4660     0.0000    10.5000 </r>
       <r>     7.5103     0.0000    10.5000 </r>
       <r>     7.5546     0.0000    10.5000 </r>
       <r>     7.5988     0.0000    10.5000 </r>
       <r>     7.6431     0.0000    10.5000 </r>
       <r>     7.6874     0.0000    10.5000 </r>
       <r>     7.7316     0.0000    10.5000 </r>
       <r>     7.7759     0.0000    10.5000 </r>
       <r>     7.8201     0.0000    10.5000 </r>
       <r>     7.8644     0.0000    10.5000 </r>
       <r>     7.9087     0.0000    10.5000 </r>
       <r>     7.9529     0.0000    10.5000 </r>
       <r>     7.9972     0.0000    10.5000 </r>
       <r>     8.0415     0.0000    10.5000 </r>
       <r>     8.0857     0.0000    10.5000 </r>
       <r>     8.1300     0.0000    10.5000 </r>
       <r>     8.1742     0.0000    10.5000 </r>
       <r>     8.2185     0.0000    10.5000 </r>
       <r>     8.2628     0.0000    10.5000 </r>
       <r>     8.3070     0.0000    10.5000 </r>
       <r>     8.3513     5.1862    10.7296 </r>
       <r>     8.3956    11.7582    11.2500 </r>
       <r>     8.4398     0.0000    11.2500 </r>
       <r>     8.4841     0.0000    11.2500 </r>
       <r>     8.5283     0.0000    11.2500 </r>
       <r>     8.5726     0.0000    11.2500 </r>
       <r>     8.6169     0.0000    11.2500 </r>
       <r>     8.6611     0.0000    11.2500 </r>
       <r>     8.7054     0.0000    11.2500 </r>
       <r>     8.7497     0.0000    11.2500 </r>
       <r>     8.7939     0.0000    11.2500 </r>
       <r>     8.8382     0.0000    11.2500 </r>
       <r>     8.8824     0.0000    11.2500 </r>
       <r>     8.9267     0.0000    11.2500 </r>
       <r>     8.9710     0.0000    11.2500 </r>
       <r>     9.0152     0.0000    11.2500 </r>
       <r>     9.0595     0.0553    11.2524 </r>
       <r>     9.1038     5.5953    11.5001 </r>
       <r>     9.1480    44.8255    13.4842 </r>
       <r>     9.1923     0.3570    13.5000 </r>
       <r>     9.2365     0.0000    13.5000 </r>
       <r>     9.2808     0.0000    13.5000 </r>
       <r>     9.3251     0.0000    13.5000 </r>
       <r>     9.3693     0.0000    13.5000 </r>
       <r>     9.4136     0.0000    13.5000 </r>
       <r>     9.4579     0.0000    13.5000 </r>
       <r>     9.5021     0.0000    13.5000 </r>
       <r>     9.5464     0.0000    13.5000 </r>
       <r>     9.5906     0.0000    13.5000 </r>
       <r>     9.6349     0.0000    13.5000 </r>
       <r>     9.6792     0.0000    13.5000 </r>
       <r>     9.7234     0.0000    13.5000 </r>
       <r>     9.7677     0.0000    13.5000 </r>
       <r>     9.8120     0.0000    13.5000 </r>
       <r>     9.8562     0.0000    13.5000 </r>
       <r>     9.9005     0.0000    13.5000 </r>
       <r>     9.9447     0.0000    13.5000 </r>
       <r>     9.9890     0.0000    13.5000 </r>
       <r>    10.0333     0.0000    13.5000 </r>
       <r>    10.0775     0.0000    13.5000 </r>
       <r>    10.1218     0.0000    13.5000 </r>
       <r>    10.1661     0.0000    13.5000 </r>
       <r>    10.2103     0.0000    13.5000 </r>
       <r>    10.2546     0.0000    13.5000 </r>
       <r>    10.2988     0.0000    13.5000 </r>
       <r>    10.3431     0.0000    13.5000 </r>
       <r>    10.3874     0.0000    13.5000 </r>
       <r>    10.4316     0.0000    13.5000 </r>
       <r>    10.4759     0.0000    13.5000 </r>
       <r>    10.5202     0.0000    13.5000 </r>
       <r>    10.5644     0.0000    13.5000 </r>
       <r>    10.6087     0.0000    13.5000 </r>
       <r>    10.6529     0.0000    13.5000 </r>
       <r>    10.6972     0.0000    13.5000 </r>
       <r>    10.7415     0.0000    13.5000 </r>
       <r>    10.7857     0.0000    13.5000 </r>
       <r>    10.8300     0.0000    13.5000 </r>
       <r>    10.8743     0.0000    13.5000 </r>
       <r>    10.9185     0.0000    13.5000 </r>
       <r>    10.9628     0.0000    13.5000 </r>
       <r>    11.0070     0.0000    13.5000 </r>
       <r>    11.0513     0.0000    13.5000 </r>
       <r>    11.0956     0.0000    13.5000 </r>
       <r>    11.1398     0.0000    13.5000 </r>
       <r>    11.1841     0.0000    13.5000 </r>
       <r>    11.2284     0.0000    13.5000 </r>
       <r>    11.2726     0.0000    13.5000 </r>
       <r>    11.3169     0.0000    13.5000 </r>
       <r>    11.3611     0.0000    13.5000 </r>
       <r>    11.4054     0.0000    13.5000 </r>
       <r>    11.4497     0.0000    13.5000 </r>
       <r>    11.4939     0.0000    13.5000 </r>
       <r>    11.5382     0.0000    13.5000 </r>
       <r>    11.5825     0.0000    13.5000 </r>
       <r>    11.6267     0.0000    13.5000 </r>
       <r>    11.6710     0.0000    13.5000 </r>
       <r>    11.7152     0.0000    13.5000 </r>
       <r>    11.7595     0.0000    13.5000 </r>
       <r>    11.8038     0.0000    13.5000 </r>
       <r>    11.8480     0.0000    13.5000 </r>
       <r>    11.8923     0.0000    13.5000 </r>
       <r>    11.9366     0.0000    13.5000 </r>
       <r>    11.9808     0.0000    13.5000 </r>
       <r>    12.0251     0.0000    13.5000 </r>
       <r>    12.0693     0.0000    13.5000 </r>
       <r>    12.1136     0.0000    13.5000 </r>
       <r>    12.1579     0.0000    13.5000 </r>
       <r>    12.2021     0.0000    13.5000 </r>
       <r>    12.2464     0.0000    13.5000 </r>
       <r>    12.2907     0.0000    13.5000 </r>
       <r>    12.3349     0.0000    13.5000 </r>
       <r>    12.3792     0.0000    13.5000 </r>
       <r>    12.4234     0.0000    13.5000 </r>
       <r>    12.4677     0.0000    13.5000 </r>
       <r>    12.5120     0.0000    13.5000 </r>
       <r>    12.5562     0.0000    13.5000 </r>
       <r>    12.6005     0.0000    13.5000 </r>
       <r>    12.6448     0.0000    13.5000 </r>
       <r>    12.6890     0.0000    13.5000 </r>
       <r>    12.7333     0.0000    13.5000 </r>
       <r>    12.7775     0.0000    13.5000 </r>
       <r>    12.8218     0.0000    13.5000 </r>
       <r>    12.8661     0.0000    13.5000 </r>
       <r>    12.9103     0.0000    13.5000 </r>
       <r>    12.9546     0.0000    13.5000 </r>
       <r>    12.9989     0.0000    13.5000 </r>
       <r>    13.0431     0.0000    13.5000 </r>
       <r>    13.0874     0.0000    13.5000 </r>
       <r>    13.1316     0.0000    13.5000 </r>
       <r>    13.1759     0.0000    13.5000 </r>
       <r>    13.2202     0.0000    13.5000 </r>
       <r>    13.2644     0.0000    13.5000 </r>
       <r>    13.3087     0.0000    13.5000 </r>
       <r>    13.3530     0.0000    13.5000 </r>
       <r>    13.3972     0.0000    13.5000 </r>
       <r>    13.4415     0.0000    13.5000 </r>
       <r>    13.4857     9.7123    13.9299 </r>
       <r>    13.5300     3.1958    14.0713 </r>
       <r>    13.5743    20.9807    15.0000 </r>
       <r>    13.6185     0.0000    15.0000 </r>
       <r>    13.6628     0.0000    15.0000 </r>
       <r>    13.7071     0.0000    15.0000 </r>
       <r>    13.7513     0.0000    15.0000 </r>
       <r>    13.7956     1.4398    15.0637 </r>
       <r>    13.8398     4.2083    15.2500 </r>
       <r>    13.8841     0.0000    15.2500 </r>
       <r>    13.9284     0.0000    15.2500 </r>
       <r>    13.9726     0.0000    15.2500 </r>
       <r>    14.0169     0.0000    15.2500 </r>
       <r>    14.0612     0.0000    15.2500 </r>
       <r>    14.1054     0.0000    15.2500 </r>
       <r>    14.1497     0.0000    15.2500 </r>
       <r>    14.1939     0.0000    15.2500 </r>
       <r>    14.2382     0.0000    15.2500 </r>
       <r>    14.2825     0.0000    15.2500 </r>
       <r>    14.3267     0.0000    15.2500 </r>
       <r>    14.3710     0.0000    15.2500 </r>
       <r>    14.4153     0.0000    15.2500 </r>
       <r>    14.4595     0.0000    15.2500 </r>
       <r>    14.5038     0.0000    15.2500 </r>
       <r>    14.5480     0.0000    15.2500 </r>
       <r>    14.5923     0.0000    15.2500 </r>
       <r>    14.6366     0.0000    15.2500 </r>
       <r>    14.6808     0.0000    15.2500 </r>
       <r>    14.7251     0.0000    15.2500 </r>
       <r>    14.7694     0.0000    15.2500 </r>
       <r>    14.8136     0.0000    15.2500 </r>
       <r>    14.8579     0.0000    15.2500 </r>
       <r>    14.9021     0.0000    15.2500 </r>
       <r>    14.9464     0.0000    15.2500 </r>
       <r>    14.9907     0.0000    15.2500 </r>
       <r>    15.0349     0.0000    15.2500 </r>
       <r>    15.0792     0.0000    15.2500 </r>
       <r>    15.1234     0.0000    15.2500 </r>
       <r>    15.1677     0.0000    15.2500 </r>
       <r>    15.2120     0.0000    15.2500 </r>
       <r>    15.2562     0.0000    15.2500 </r>
       <r>    15.3005     0.0000    15.2500 </r>
       <r>    15.3448     0.0000    15.2500 </r>
       <r>    15.3890     0.0000    15.2500 </r>
       <r>    15.4333     0.0000    15.2500 </r>
       <r>    15.4775     0.0000    15.2500 </r>
       <r>    15.5218     0.0000    15.2500 </r>
       <r>    15.5661     0.0000    15.2500 </r>
       <r>    15.6103     0.0000    15.2500 </r>
       <r>    15.6546     0.0000    15.2500 </r>
       <r>    15.6989     0.0000    15.2500 </r>
       <r>    15.7431     0.0000    15.2500 </r>
       <r>    15.7874     0.7266    15.2822 </r>
       <r>    15.8316    33.1618    16.7500 </r>
       <r>    15.8759     0.0004    16.7500 </r>
       <r>    15.9202     0.0000    16.7500 </r>
       <r>    15.9644     0.0000    16.7500 </r>
       <r>    16.0087     0.0000    16.7500 </r>
       <r>    16.0530     0.0000    16.7500 </r>
       <r>    16.0972     0.0000    16.7500 </r>
       <r>    16.1415     0.0000    16.7500 </r>
       <r>    16.1857     0.0000    16.7500 </r>
       <r>    16.2300     0.0000    16.7500 </r>
       <r>    16.2743     0.0000    16.7500 </r>
       <r>    16.3185    37.3613    18.4037 </r>
       <r>    16.3628     7.8238    18.7500 </r>
       <r>    16.4071     0.0000    18.7500 </r>
       <r>    16.4513     0.0000    18.7500 </r>
       <r>    16.4956     0.0000    18.7500 </r>
       <r>    16.5398     0.0000    18.7500 </r>
       <r>    16.5841     0.0000    18.7500 </r>
       <r>    16.6284     0.0000    18.7500 </r>
       <r>    16.6726     0.0000    18.7500 </r>
       <r>    16.7169     0.0000    18.7500 </r>
       <r>    16.7612     0.0057    18.7503 </r>
       <r>    16.8054    33.7554    20.2443 </r>
       <r>    16.8497     0.1277    20.2500 </r>
       <r>    16.8939     0.0000    20.2500 </r>
       <r>    16.9382     6.1007    20.5200 </r>
       <r>    16.9825    10.8436    21.0000 </r>
       <r>    17.0267     2.2422    21.0992 </r>
       <r>    17.0710    42.9428    23.0000 </r>
       <r>    17.1153     0.0002    23.0000 </r>
       <r>    17.1595    21.6689    23.9591 </r>
       <r>    17.2038     0.9235    24.0000 </r>
       <r>    17.2480     0.0000    24.0000 </r>
       <r>    17.2923     0.0000    24.0000 </r>
       <r>    17.3366     0.0000    24.0000 </r>
       <r>    17.3808     0.0000    24.0000 </r>
       <r>    17.4251     0.0000    24.0000 </r>
       <r>    17.4694     0.0000    24.0000 </r>
       <r>    17.5136     0.0000    24.0000 </r>
       <r>    17.5579     0.0000    24.0000 </r>
       <r>    17.6021     0.0000    24.0000 </r>
       <r>    17.6464     0.0000    24.0000 </r>
       <r>    17.6907     0.0000    24.0000 </r>
       <r>    17.7349     0.0000    24.0000 </r>
       <r>    17.7792     0.0000    24.0000 </r>
       <r>    17.8235     0.0000    24.0000 </r>
       <r>    17.8677     0.0000    24.0000 </r>
       <r>    17.9120     0.0000    24.0000 </r>
       <r>    17.9562     0.0000    24.0000 </r>
       <r>    18.0005     0.0000    24.0000 </r>
       <r>    18.0448     0.0000    24.0000 </r>
       <r>    18.0890     0.0000    24.0000 </r>
       <r>    18.1333     0.0000    24.0000 </r>
       <r>    18.1776     0.0000    24.0000 </r>
       <r>    18.2218    17.0138    24.7531 </r>
       <r>    18.2661    16.8750    25.5000 </r>
       <r>    18.3103     0.0000    25.5000 </r>
       <r>    18.3546     0.0000    25.5000 </r>
       <r>    18.3989     0.0000    25.5000 </r>
       <r>    18.4431     0.0000    25.5000 </r>
       <r>    18.4874     0.0000    25.5000 </r>
       <r>    18.5317     0.0000    25.5000 </r>
       <r>    18.5759     0.0000    25.5000 </r>
       <r>    18.6202     0.0001    25.5000 </r>
       <r>    18.6644    21.9136    26.4700 </r>
       <r>    18.7087     0.6788    26.5000 </r>
       <r>    18.7530    25.7698    27.6406 </r>
       <r>    18.7972     8.1190    28.0000 </r>
       <r>    18.8415     0.0000    28.0000 </r>
       <r>    18.8858     0.0000    28.0000 </r>
       <r>    18.9300     0.0000    28.0000 </r>
       <r>    18.9743     0.0000    28.0000 </r>
       <r>    19.0185     0.0000    28.0000 </r>
       <r>    19.0628     0.0000    28.0000 </r>
       <r>    19.1071     0.0000    28.0000 </r>
       <r>    19.1513     0.0000    28.0000 </r>
       <r>    19.1956     0.0000    28.0000 </r>
       <r>    19.2399     0.0000    28.0000 </r>
       <r>    19.2841     0.0000    28.0000 </r>
       <r>    19.3284     0.0000    28.0000 </r>
       <r>    19.3726     0.0000    28.0000 </r>
       <r>    19.4169     0.0000    28.0000 </r>
       <r>    19.4612     0.0000    28.0000 </r>
       <r>    19.5054     0.0000    28.0000 </r>
       <r>    19.5497     0.0000    28.0000 </r>
       <r>    19.5940     0.0000    28.0000 </r>
       <r>    19.6382     0.0000    28.0000 </r>
       <r>    19.6825     0.0000    28.0000 </r>
       <r>    19.7267     0.0000    28.0000 </r>
       <r>    19.7710     0.0000    28.0000 </r>
       <r>    19.8153     0.0000    28.0000 </r>
       <r>    19.8595     0.0000    28.0000 </r>
       <r>    19.9038     0.0000    28.0000 </r>
       <r>    19.9481     0.0000    28.0000 </r>
       <r>    19.9923     0.0000    28.0000 </r>
       <r>    20.0366     0.0000    28.0000 </r>
       <r>    20.0808     0.0000    28.0000 </r>
       <r>    20.1251     0.0000    28.0000 </r>
       <r>    20.1694     0.0000    28.0000 </r>
       <r>    20.2136     0.0000    28.0000 </r>
       <r>    20.2579     0.0000    28.0000 </r>
       <r>    20.3022     0.0000    28.0000 </r>
       <r>    20.3464     0.0000    28.0000 </r>
       <r>    20.3907     0.0000    28.0000 </r>
       <r>    20.4349     0.0000    28.0000 </r>
       <r>    20.4792     0.0000    28.0000 </r>
       <r>    20.5235     0.0000    28.0000 </r>
       <r>    20.5677     0.0000    28.0000 </r>
       <r>    20.6120     0.0000    28.0000 </r>
       <r>    20.6563     0.0000    28.0000 </r>
       <r>    20.7005     0.0000    28.0000 </r>
       <r>    20.7448     0.0000    28.0000 </r>
       <r>    20.7890     0.0000    28.0000 </r>
       <r>    20.8333     0.0000    28.0000 </r>
       <r>    20.8776     0.0000    28.0000 </r>
       <r>    20.9218     0.0000    28.0000 </r>
       <r>    20.9661     0.0000    28.0000 </r>
       <r>    21.0104     0.0000    28.0000 </r>
       <r>    21.0546     0.0000    28.0000 </r>
       <r>    21.0989     0.0000    28.0000 </r>
       <r>    21.1431     0.0000    28.0000 </r>
       <r>    21.1874     0.0000    28.0000 </r>
       <r>    21.2317     5.3457    28.2366 </r>
       <r>    21.2759     0.3024    28.2500 </r>
       <r>    21.3202     0.0000    28.2500 </r>
       <r>    21.3645     0.0000    28.2500 </r>
       <r>    21.4087     0.0000    28.2500 </r>
       <r>    21.4530     0.0000    28.2500 </r>
       <r>    21.4972     0.0000    28.2500 </r>
       <r>    21.5415     0.0000    28.2500 </r>
       <r>    21.5858     0.0000    28.2500 </r>
       <r>    21.6300     0.0000    28.2500 </r>
       <r>    21.6743     0.0000    28.2500 </r>
       <r>    21.7186     0.0000    28.2500 </r>
       <r>    21.7628     0.0000    28.2500 </r>
       <r>    21.8071     0.0000    28.2500 </r>
       <r>    21.8513     0.0000    28.2500 </r>
       <r>    21.8956     0.0000    28.2500 </r>
       <r>    21.9399     0.0000    28.2500 </r>
       <r>    21.9841     0.0000    28.2500 </r>
       <r>    22.0284     0.0000    28.2500 </r>
       <r>    22.0727     0.0000    28.2500 </r>
       <r>    22.1169     0.0000    28.2500 </r>
       <r>    22.1612     0.0000    28.2500 </r>
       <r>    22.2054     0.0000    28.2500 </r>
       <r>    22.2497     0.0000    28.2500 </r>
       <r>    22.2940     0.0000    28.2500 </r>
       <r>    22.3382     0.0000    28.2500 </r>
       <r>    22.3825     0.0000    28.2500 </r>
       <r>    22.4268     0.0000    28.2500 </r>
       <r>    22.4710     0.0000    28.2500 </r>
       <r>    22.5153     0.0000    28.2500 </r>
       <r>    22.5595     0.0000    28.2500 </r>
       <r>    22.6038     0.0000    28.2500 </r>
       <r>    22.6481     0.0000    28.2500 </r>
       <r>    22.6923     0.0000    28.2500 </r>
       <r>    22.7366     0.0000    28.2500 </r>
       <r>    22.7809     0.0000    28.2500 </r>
       <r>    22.8251     0.0000    28.2500 </r>
       <r>    22.8694     0.0000    28.2500 </r>
       <r>    22.9136     0.0000    28.2500 </r>
       <r>    22.9579     0.0000    28.2500 </r>
       <r>    23.0022     0.0000    28.2500 </r>
       <r>    23.0464     0.0000    28.2500 </r>
[...]
        <r>  0.0000  0.0005  0.0107  0.0000  0.0000  0.0000  0.0000  0.0000  0.0000 </r>
       </set>
       <set comment="band 44">
        <r>  0.0000  0.0005  0.0107  0.0000  0.0000  0.0000  0.0000  0.0000  0.0000 </r>
        <r>  0.0000  0.0107  0.0005  0.0000  0.0000  0.0000  0.0000  0.0000  0.0000 </r>
       </set>
       <set comment="band 45">
        <r>  0.0000  0.0000  0.0000  0.0000  0.0000  0.0000  0.0000  0.0000  0.0000 </r>
        <r>  0.0000  0.0000  0.0000  0.0000  0.0000  0.0000  0.0000  0.0000  0.0000 </r>
       </set>
       <set comment="band 46">
        <r>  0.0000  0.0000  0.0000  0.0000  0.0000  0.0000  0.0000  0.0000  0.0000 </r>
        <r>  0.0000  0.0000  0.0000  0.0000  0.0000  0.0000  0.0000  0.0000  0.0000 </r>
       </set>
       <set comment="band 47">
        <r>  0.0202  0.0000  0.0000  0.0777  0.0000  0.0000  0.0000  0.0000  0.0000 </r>
        <r>  0.0195  0.0000  0.0000  0.0805  0.0000  0.0000  0.0000  0.0000  0.0000 </r>
       </set>
       <set comment="band 48">
        <r>  0.0195  0.0000  0.0000  0.0805  0.0000  0.0000  0.0000  0.0000  0.0000 </r>
        <r>  0.0202  0.0000  0.0000  0.0777  0.0000  0.0000  0.0000  0.0000  0.0000 </r>
       </set>
       <set comment="band 49">
        <r>  0.0111  0.0000  0.0000  0.0499  0.0000  0.0000  0.0000  0.0000  0.0000 </r>
        <r>  0.0106  0.0000  0.0000  0.0523  0.0000  0.0000  0.0000  0.0000  0.0000 </r>
       </set>
       <set comment="band 50">
        <r>  0.0106  0.0000  0.0000  0.0523  0.0000  0.0000  0.0000  0.0000  0.0000 </r>
        <r>  0.0111  0.0000  0.0000  0.0499  0.0000  0.0000  0.0000  0.0000  0.0000 </r>
       </set>
       <set comment="band 51">
        <r>  0.0000  0.0365  0.0105  0.0000  0.0000  0.0000  0.0000  0.0000  0.0000 </r>
        <r>  0.0000  0.0105  0.0365  0.0000  0.0000  0.0000  0.0000  0.0000  0.0000 </r>
       </set>
       <set comment="band 52">
        <r>  0.0000  0.0105  0.0365  0.0000  0.0000  0.0000  0.0000  0.0000  0.0000 </r>
        <r>  0.0000  0.0365  0.0105  0.0000  0.0000  0.0000  0.0000  0.0000  0.0000 </r>
       </set>
       <set comment="band 53">
        <r>  0.0000  0.0000  0.0000  0.0000  0.0000  0.0000  0.0000  0.0000  0.0000 </r>
        <r>  0.0000  0.0000  0.0000  0.0000  0.0000  0.0000  0.0000  0.0000  0.0000 </r>
       </set>
       <set comment="band 54">
        <r>  0.0000  0.0000  0.0000  0.0000  0.0000  0.0000  0.0000  0.0000  0.0000 </r>
        <r>  0.0000  0.0000  0.0000  0.0000  0.0000  0.0000  0.0000  0.0000  0.0000 </r>
       </set>
       <set comment="band 55">
        <r>  0.0000  0.0524  0.0429  0.0000  0.0000  0.0000  0.0000  0.0000  0.0000 </r>
        <r>  0.0000  0.0429  0.0524  0.0000  0.0000  0.0000  0.0000  0.0000  0.0000 </r>
       </set>
       <set comment="band 56">
        <r>  0.0000  0.0429  0.0524  0.0000  0.0000  0.0000  0.0000  0.0000  0.0000 </r>
        <r>  0.0000  0.0524  0.0429  0.0000  0.0000  0.0000  0.0000  0.0000  0.0000 </r>
       </set>
       <set comment="band 57">
        <r>  0.0000  0.0036  0.0052  0.0000  0.0000  0.0000  0.0000  0.0000  0.0000 </r>
        <r>  0.0000  0.0052  0.0036  0.0000  0.0000  0.0000  0.0000  0.0000  0.0000 </r>
       </set>
       <set comment="band 58">
        <r>  0.0000  0.0052  0.0036  0.0000  0.0000  0.0000  0.0000  0.0000  0.0000 </r>
        <r>  0.0000  0.0036  0.0052  0.0000  0.0000  0.0000  0.0000  0.0000  0.0000 </r>
       </set>
       <set comment="band 59">
        <r>  0.0000  0.0000  0.0000  0.0000  0.0000  0.0000  0.0000  0.0000  0.0000 </r>
        <r>  0.0000  0.0000  0.0000  0.0000  0.0000  0.0000  0.0000  0.0000  0.0000 </r>
       </set>
       <set comment="band 60">
        <r>  0.0000  0.0000  0.0000  0.0000  0.0000  0.0000  0.0000  0.0000  0.0000 </r>
        <r>  0.0000  0.0000  0.0000  0.0000  0.0000  0.0000  0.0000  0.0000  0.0000 </r>
       </set>
       <set comment="band 61">
        <r>  0.0000  0.0264  0.0229  0.0000  0.0000  0.0000  0.0000  0.0000  0.0000 </r>
        <r>  0.0000  0.0229  0.0264  0.0000  0.0000  0.0000  0.0000  0.0000  0.0000 </r>
       </set>
       <set comment="band 62">
        <r>  0.0000  0.0229  0.0264  0.0000  0.0000  0.0000  0.0000  0.0000  0.0000 </r>
        <r>  0.0000  0.0264  0.0229  0.0000  0.0000  0.0000  0.0000  0.0000  0.0000 </r>
       </set>
       <set comment="band 63">
        <r>  0.1820  0.0000  0.0000  0.0000  0.0000  0.0000  0.0000  0.0000  0.0000 </r>
        <r>  0.1023  0.0000  0.0000  0.0000  0.0000  0.0000  0.0000  0.0000  0.0000 </r>
       </set>
       <set comment="band 64">
        <r>  0.1023  0.0000  0.0000  0.0000  0.0000  0.0000  0.0000  0.0000  0.0000 </r>
        <r>  0.1820  0.0000  0.0000  0.0000  0.0000  0.0000  0.0000  0.0000  0.0000 </r>
       </set>
      </set>
      <set comment="kpoint 8">
       <set comment="band 1">
        <r>  0.2218  0.0044  0.0044  0.0044  0.0000  0.0000  0.0000  0.0000  0.0000 </r>
        <r>  0.2218  0.0044  0.0044  0.0044  0.0000  0.0000  0.0000  0.0000  0.0000 </r>
       </set>
       <set comment="band 2">
        <r>  0.0973  0.0306  0.0306  0.0306  0.0000  0.0000  0.0000  0.0000  0.0000 </r>
        <r>  0.0973  0.0306  0.0306  0.0306  0.0000  0.0000  0.0000  0.0000  0.0000 </r>
       </set>
       <set comment="band 3">
        <r>  0.0000  0.1392  0.0186  0.0560  0.0000  0.0000  0.0000  0.0000  0.0000 </r>
        <r>  0.0000  0.1392  0.0186  0.0560  0.0000  0.0000  0.0000  0.0000  0.0000 </r>
       </set>
       <set comment="band 4">
        <r>  0.0000  0.0034  0.1239  0.0865  0.0000  0.0000  0.0000  0.0000  0.0000 </r>
        <r>  0.0000  0.0034  0.1239  0.0865  0.0000  0.0000  0.0000  0.0000  0.0000 </r>
       </set>
       <set comment="band 5">
        <r>  0.1860  0.0066  0.0066  0.0066  0.0000  0.0000  0.0000  0.0000  0.0000 </r>
        <r>  0.1860  0.0066  0.0066  0.0066  0.0000  0.0000  0.0000  0.0000  0.0000 </r>
       </set>
       <set comment="band 6">
        <r>  0.0000  0.0400  0.0521  0.0008  0.0000  0.0000  0.0000  0.0000  0.0000 </r>
        <r>  0.0000  0.0400  0.0521  0.0008  0.0000  0.0000  0.0000  0.0000  0.0000 </r>
       </set>
       <set comment="band 7">
        <r>  0.0000  0.0220  0.0098  0.0611  0.0000  0.0000  0.0000  0.0000  0.0000 </r>
        <r>  0.0000  0.0220  0.0098  0.0611  0.0000  0.0000  0.0000  0.0000  0.0000 </r>
       </set>
       <set comment="band 8">
        <r>  0.0057  0.0178  0.0178  0.0178  0.0000  0.0000  0.0000  0.0000  0.0000 </r>
        <r>  0.0057  0.0178  0.0178  0.0178  0.0000  0.0000  0.0000  0.0000  0.0000 </r>
       </set>
       <set comment="band 9">
        <r>  0.0000  0.0000  0.0002  0.0002  0.0000  0.0000  0.0000  0.0000  0.0000 </r>
        <r>  0.0000  0.0000  0.0002  0.0002  0.0000  0.0000  0.0000  0.0000  0.0000 </r>
       </set>
       <set comment="band 10">
        <r>  0.0000  0.0002  0.0000  0.0001  0.0000  0.0000  0.0000  0.0000  0.0000 </r>
        <r>  0.0000  0.0002  0.0000  0.0001  0.0000  0.0000  0.0000  0.0000  0.0000 </r>
       </set>
       <set comment="band 11">
        <r>  0.0000  0.0759  0.0137  0.0251  0.0000  0.0000  0.0000  0.0000  0.0000 </r>
        <r>  0.0000  0.0759  0.0137  0.0251  0.0000  0.0000  0.0000  0.0000  0.0000 </r>
       </set>
       <set comment="band 12">
        <r>  0.0000  0.0006  0.0628  0.0514  0.0000  0.0000  0.0000  0.0000  0.0000 </r>
        <r>  0.0000  0.0006  0.0628  0.0514  0.0000  0.0000  0.0000  0.0000  0.0000 </r>
       </set>
       <set comment="band 13">
        <r>  0.0375  0.0501  0.0501  0.0501  0.0000  0.0000  0.0000  0.0000  0.0000 </r>
        <r>  0.0375  0.0501  0.0501  0.0501  0.0000  0.0000  0.0000  0.0000  0.0000 </r>
       </set>
       <set comment="band 14">
        <r>  0.0875  0.0690  0.0690  0.0690  0.0000  0.0000  0.0000  0.0000  0.0000 </r>
        <r>  0.0875  0.0690  0.0690  0.0690  0.0000  0.0000  0.0000  0.0000  0.0000 </r>
       </set>
       <set comment="band 15">
        <r>  0.0504  0.0045  0.0045  0.0045  0.0000  0.0000  0.0000  0.0000  0.0000 </r>
        <r>  0.0504  0.0045  0.0045  0.0045  0.0000  0.0000  0.0000  0.0000  0.0000 </r>
       </set>
       <set comment="band 16">
        <r>  0.0141  0.0227  0.0227  0.0227  0.0000  0.0000  0.0000  0.0000  0.0000 </r>
        <r>  0.0141  0.0227  0.0227  0.0227  0.0000  0.0000  0.0000  0.0000  0.0000 </r>
       </set>
       <set comment="band 17">
        <r>  0.0000  0.0020  0.0013  0.0001  0.0000  0.0000  0.0000  0.0000  0.0000 </r>
        <r>  0.0000  0.0020  0.0013  0.0001  0.0000  0.0000  0.0000  0.0000  0.0000 </r>
       </set>
       <set comment="band 18">
        <r>  0.0000  0.0002  0.0010  0.0021  0.0000  0.0000  0.0000  0.0000  0.0000 </r>
        <r>  0.0000  0.0002  0.0010  0.0021  0.0000  0.0000  0.0000  0.0000  0.0000 </r>
       </set>
       <set comment="band 19">
        <r>  0.0000  0.0002  0.0182  0.0218  0.0000  0.0000  0.0000  0.0000  0.0000 </r>
        <r>  0.0000  0.0002  0.0182  0.0218  0.0000  0.0000  0.0000  0.0000  0.0000 </r>
       </set>
       <set comment="band 20">
        <r>  0.0000  0.0266  0.0086  0.0049  0.0000  0.0000  0.0000  0.0000  0.0000 </r>
        <r>  0.0000  0.0266  0.0086  0.0049  0.0000  0.0000  0.0000  0.0000  0.0000 </r>
       </set>
       <set comment="band 21">
        <r>  0.0100  0.0040  0.0040  0.0040  0.0000  0.0000  0.0000  0.0000  0.0000 </r>
        <r>  0.0100  0.0040  0.0040  0.0040  0.0000  0.0000  0.0000  0.0000  0.0000 </r>
       </set>
       <set comment="band 22">
        <r>  0.0000  0.0009  0.0009  0.0000  0.0000  0.0000  0.0000  0.0000  0.0000 </r>
        <r>  0.0000  0.0009  0.0009  0.0000  0.0000  0.0000  0.0000  0.0000  0.0000 </r>
       </set>
       <set comment="band 23">
        <r>  0.0000  0.0003  0.0003  0.0012  0.0000  0.0000  0.0000  0.0000  0.0000 </r>
        <r>  0.0000  0.0003  0.0003  0.0012  0.0000  0.0000  0.0000  0.0000  0.0000 </r>
       </set>
       <set comment="band 24">
        <r>  0.0000  0.1041  0.0220  0.0303  0.0000  0.0000  0.0000  0.0000  0.0000 </r>
        <r>  0.0000  0.1041  0.0220  0.0303  0.0000  0.0000  0.0000  0.0000  0.0000 </r>
       </set>
       <set comment="band 25">
        <r>  0.0000  0.0002  0.0822  0.0740  0.0000  0.0000  0.0000  0.0000  0.0000 </r>
        <r>  0.0000  0.0002  0.0822  0.0740  0.0000  0.0000  0.0000  0.0000  0.0000 </r>
       </set>
       <set comment="band 26">
        <r>  0.0077  0.0081  0.0081  0.0081  0.0000  0.0000  0.0000  0.0000  0.0000 </r>
        <r>  0.0077  0.0081  0.0081  0.0081  0.0000  0.0000  0.0000  0.0000  0.0000 </r>
       </set>
       <set comment="band 27">
        <r>  0.0000  0.0000  0.0000  0.0000  0.0000  0.0000  0.0000  0.0000  0.0000 </r>
        <r>  0.0000  0.0000  0.0000  0.0000  0.0000  0.0000  0.0000  0.0000  0.0000 </r>
       </set>
       <set comment="band 28">
        <r>  0.0000  0.0087  0.0423  0.0127  0.0000  0.0000  0.0000  0.0000  0.0000 </r>
        <r>  0.0000  0.0087  0.0423  0.0127  0.0000  0.0000  0.0000  0.0000  0.0000 </r>
       </set>
       <set comment="band 29">
        <r>  0.0000  0.0337  0.0001  0.0297  0.0000  0.0000  0.0000  0.0000  0.0000 </r>
        <r>  0.0000  0.0337  0.0001  0.0297  0.0000  0.0000  0.0000  0.0000  0.0000 </r>
       </set>
       <set comment="band 30">
        <r>  0.0000  0.0106  0.0147  0.0003  0.0000  0.0000  0.0000  0.0000  0.0000 </r>
        <r>  0.0000  0.0106  0.0147  0.0003  0.0000  0.0000  0.0000  0.0000  0.0000 </r>
       </set>
       <set comment="band 31">
        <r>  0.0000  0.0065  0.0024  0.0167  0.0000  0.0000  0.0000  0.0000  0.0000 </r>
        <r>  0.0000  0.0065  0.0024  0.0167  0.0000  0.0000  0.0000  0.0000  0.0000 </r>
       </set>
       <set comment="band 32">
        <r>  0.0716  0.0000  0.0000  0.0000  0.0000  0.0000  0.0000  0.0000  0.0000 </r>
        <r>  0.0716  0.0000  0.0000  0.0000  0.0000  0.0000  0.0000  0.0000  0.0000 </r>
       </set>
       <set comment="band 33">
        <r>  0.0000  0.0000  0.0000  0.0000  0.0000  0.0000  0.0000  0.0000  0.0000 </r>
        <r>  0.0000  0.0000  0.0000  0.0000  0.0000  0.0000  0.0000  0.0000  0.0000 </r>
       </set>
       <set comment="band 34">
        <r>  0.0316  0.0054  0.0054  0.0054  0.0000  0.0000  0.0000  0.0000  0.0000 </r>
        <r>  0.0316  0.0054  0.0054  0.0054  0.0000  0.0000  0.0000  0.0000  0.0000 </r>
       </set>
       <set comment="band 35">
        <r>  0.0000  0.0001  0.0000  0.0000  0.0000  0.0000  0.0000  0.0000  0.0000 </r>
        <r>  0.0000  0.0001  0.0000  0.0000  0.0000  0.0000  0.0000  0.0000  0.0000 </r>
       </set>
       <set comment="band 36">
        <r>  0.0000  0.0000  0.0000  0.0001  0.0000  0.0000  0.0000  0.0000  0.0000 </r>
        <r>  0.0000  0.0000  0.0000  0.0001  0.0000  0.0000  0.0000  0.0000  0.0000 </r>
       </set>
       <set comment="band 37">
        <r>  0.0000  0.0090  0.0099  0.0377  0.0000  0.0000  0.0000  0.0000  0.0000 </r>
        <r>  0.0000  0.0090  0.0099  0.0377  0.0000  0.0000  0.0000  0.0000  0.0000 </r>
       </set>
       <set comment="band 38">
        <r>  0.0000  0.0288  0.0278  0.0000  0.0000  0.0000  0.0000  0.0000  0.0000 </r>
        <r>  0.0000  0.0288  0.0278  0.0000  0.0000  0.0000  0.0000  0.0000  0.0000 </r>
       </set>
       <set comment="band 39">
        <r>  0.0001  0.0005  0.0005  0.0005  0.0000  0.0000  0.0000  0.0000  0.0000 </r>
        <r>  0.0001  0.0005  0.0005  0.0005  0.0000  0.0000  0.0000  0.0000  0.0000 </r>
       </set>
       <set comment="band 40">
        <r>  0.0436  0.0050  0.0050  0.0050  0.0000  0.0000  0.0000  0.0000  0.0000 </r>
        <r>  0.0436  0.0050  0.0050  0.0050  0.0000  0.0000  0.0000  0.0000  0.0000 </r>
       </set>
       <set comment="band 41">
        <r>  0.0000  0.0000  0.0000  0.0000  0.0000  0.0000  0.0000  0.0000  0.0000 </r>
        <r>  0.0000  0.0000  0.0000  0.0000  0.0000  0.0000  0.0000  0.0000  0.0000 </r>
       </set>
       <set comment="band 42">
        <r>  0.0000  0.0000  0.0000  0.0000  0.0000  0.0000  0.0000  0.0000  0.0000 </r>
        <r>  0.0000  0.0000  0.0000  0.0000  0.0000  0.0000  0.0000  0.0000  0.0000 </r>
       </set>
       <set comment="band 43">
        <r>  0.0000  0.0033  0.0012  0.0086  0.0000  0.0000  0.0000  0.0000  0.0000 </r>
        <r>  0.0000  0.0033  0.0012  0.0086  0.0000  0.0000  0.0000  0.0000  0.0000 </r>
       </set>
       <set comment="band 44">
        <r>  0.0000  0.0054  0.0075  0.0002  0.0000  0.0000  0.0000  0.0000  0.0000 </r>
        <r>  0.0000  0.0054  0.0075  0.0002  0.0000  0.0000  0.0000  0.0000  0.0000 </r>
       </set>
       <set comment="band 45">
        <r>  0.0459  0.0103  0.0103  0.0103  0.0000  0.0000  0.0000  0.0000  0.0000 </r>
        <r>  0.0459  0.0103  0.0103  0.0103  0.0000  0.0000  0.0000  0.0000  0.0000 </r>
       </set>
       <set comment="band 46">
        <r>  0.0185  0.0317  0.0317  0.0317  0.0000  0.0000  0.0000  0.0000  0.0000 </r>
        <r>  0.0185  0.0317  0.0317  0.0317  0.0000  0.0000  0.0000  0.0000  0.0000 </r>
       </set>
       <set comment="band 47">
        <r>  0.0000  0.0000  0.0001  0.0000  0.0000  0.0000  0.0000  0.0000  0.0000 </r>
        <r>  0.0000  0.0000  0.0001  0.0000  0.0000  0.0000  0.0000  0.0000  0.0000 </r>
       </set>
       <set comment="band 48">
        <r>  0.0000  0.0001  0.0000  0.0001  0.0000  0.0000  0.0000  0.0000  0.0000 </r>
        <r>  0.0000  0.0001  0.0000  0.0001  0.0000  0.0000  0.0000  0.0000  0.0000 </r>
       </set>
       <set comment="band 49">
        <r>  0.0000  0.0300  0.0085  0.0066  0.0000  0.0000  0.0000  0.0000  0.0000 </r>
        <r>  0.0000  0.0300  0.0085  0.0066  0.0000  0.0000  0.0000  0.0000  0.0000 </r>
       </set>
       <set comment="band 50">
        <r>  0.0000  0.0000  0.0216  0.0235  0.0000  0.0000  0.0000  0.0000  0.0000 </r>
        <r>  0.0000  0.0000  0.0216  0.0235  0.0000  0.0000  0.0000  0.0000  0.0000 </r>
       </set>
       <set comment="band 51">
        <r>  0.0037  0.0174  0.0174  0.0174  0.0000  0.0000  0.0000  0.0000  0.0000 </r>
        <r>  0.0037  0.0174  0.0174  0.0174  0.0000  0.0000  0.0000  0.0000  0.0000 </r>
       </set>
       <set comment="band 52">
        <r>  0.0000  0.0001  0.0015  0.0023  0.0000  0.0000  0.0000  0.0000  0.0000 </r>
        <r>  0.0000  0.0001  0.0015  0.0023  0.0000  0.0000  0.0000  0.0000  0.0000 </r>
       </set>
       <set comment="band 53">
        <r>  0.0000  0.0025  0.0011  0.0003  0.0000  0.0000  0.0000  0.0000  0.0000 </r>
        <r>  0.0000  0.0025  0.0011  0.0003  0.0000  0.0000  0.0000  0.0000  0.0000 </r>
       </set>
       <set comment="band 54">
        <r>  0.0000  0.0010  0.0265  0.0171  0.0000  0.0000  0.0000  0.0000  0.0000 </r>
        <r>  0.0000  0.0010  0.0265  0.0171  0.0000  0.0000  0.0000  0.0000  0.0000 </r>
       </set>
       <set comment="band 55">
        <r>  0.0000  0.0288  0.0033  0.0127  0.0000  0.0000  0.0000  0.0000  0.0000 </r>
        <r>  0.0000  0.0288  0.0033  0.0127  0.0000  0.0000  0.0000  0.0000  0.0000 </r>
       </set>
       <set comment="band 56">
        <r>  0.0562  0.0124  0.0124  0.0124  0.0000  0.0000  0.0000  0.0000  0.0000 </r>
        <r>  0.0562  0.0124  0.0124  0.0124  0.0000  0.0000  0.0000  0.0000  0.0000 </r>
       </set>
       <set comment="band 57">
        <r>  0.0000  0.0006  0.0120  0.0072  0.0000  0.0000  0.0000  0.0000  0.0000 </r>
        <r>  0.0000  0.0006  0.0120  0.0072  0.0000  0.0000  0.0000  0.0000  0.0000 </r>
       </set>
       <set comment="band 58">
        <r>  0.0000  0.0126  0.0012  0.0060  0.0000  0.0000  0.0000  0.0000  0.0000 </r>
        <r>  0.0000  0.0126  0.0012  0.0060  0.0000  0.0000  0.0000  0.0000  0.0000 </r>
       </set>
       <set comment="band 59">
        <r>  0.0732  0.0168  0.0168  0.0168  0.0000  0.0000  0.0000  0.0000  0.0000 </r>
        <r>  0.0732  0.0168  0.0168  0.0168  0.0000  0.0000  0.0000  0.0000  0.0000 </r>
       </set>
       <set comment="band 60">
        <r>  0.0000  0.0375  0.0252  0.0012  0.0000  0.0000  0.0000  0.0000  0.0000 </r>
        <r>  0.0000  0.0375  0.0252  0.0012  0.0000  0.0000  0.0000  0.0000  0.0000 </r>
       </set>
       <set comment="band 61">
        <r>  0.0000  0.0051  0.0174  0.0414  0.0000  0.0000  0.0000  0.0000  0.0000 </r>
        <r>  0.0000  0.0051  0.0174  0.0414  0.0000  0.0000  0.0000  0.0000  0.0000 </r>
       </set>
       <set comment="band 62">
        <r>  0.0002  0.0014  0.0014  0.0014  0.0000  0.0000  0.0000  0.0000  0.0000 </r>
        <r>  0.0002  0.0014  0.0014  0.0014  0.0000  0.0000  0.0000  0.0000  0.0000 </r>
       </set>
       <set comment="band 63">
        <r>  0.0000  0.0000  0.0000  0.0000  0.0000  0.0000  0.0000  0.0000  0.0000 </r>
        <r>  0.0000  0.0000  0.0000  0.0000  0.0000  0.0000  0.0000  0.0000  0.0000 </r>
       </set>
       <set comment="band 64">
        <r>  0.0000  0.0000  0.0000  0.0000  0.0000  0.0000  0.0000  0.0000  0.0000 </r>
        <r>  0.0000  0.0000  0.0000  0.0000  0.0000  0.0000  0.0000  0.0000  0.0000 </r>
       </set>
      </set>
     </set>
    </set>
   </array>
  </projected>
 </calculation>
 <structure name="finalpos" >
  <crystal>
   <varray name="basis" >
    <v>       0.00000000       2.73437320       2.73437320 </v>
    <v>       2.73437320       0.00000000       2.73437320 </v>
    <v>       2.73437320       2.73437320       0.00000000 </v>
   </varray>
   <i name="volume">     40.88870554 </i>
   <varray name="rec_basis" >
    <v>      -0.18285726       0.18285726       0.18285726 </v>
    <v>       0.18285726      -0.18285726       0.18285726 </v>
    <v>       0.18285726       0.18285726      -0.18285726 </v>
   </varray>
  </crystal>
  <varray name="positions" >
   <v>       0.50000000       0.50000000       0.50000000 </v>
   <v>       0.75000000       0.75000000       0.75000000 </v>
  </varray>
 </structure>
</modeling>
